composition,gap expt,composition_pmg,MagpieData mean Number,MagpieData mean MendeleevNumber,MagpieData mean MeltingT,MagpieData mean Column,MagpieData mean CovalentRadius,MagpieData mean Electronegativity,MagpieData mean NsValence,MagpieData mean NpValence,MagpieData mean NdValence,MagpieData mean NValence,MagpieData mean NpUnfilled,MagpieData mean NUnfilled,MagpieData mean GSvolume_pa,MagpieData mean GSbandgap,MagpieData mean SpaceGroupNumber
In1.7Cu0.3Se2.7,1.21,In1.7 Cu0.3 Se2.7,39.1063829787234,82.34042553191489,525.8948936170212,14.595744680851062,128.72340425531914,2.23,1.9361702127659572,2.6595744680851063,10.0,14.595744680851062,2.9574468085106385,3.021276595744681,24.371702127659574,0.459,72.68085106382978
In1.85Cu0.15Se2.85,1.32,In1.85 Cu0.15 Se2.85,39.56701030927835,82.88659793814433,496.2068041237114,14.701030927835053,128.76288659793815,2.2361855670103097,1.969072164948454,2.731958762886598,10.0,14.701030927835053,3.082474226804124,3.1134020618556706,24.827525773195884,0.46951546391752585,68.20618556701032
In1.8Cu0.2Se2.8,1.26,In1.8 Cu0.2 Se2.8,39.416666666666664,82.70833333333334,505.8966666666667,14.666666666666668,128.75,2.2341666666666664,1.9583333333333335,2.7083333333333335,10.0,14.666666666666668,3.0416666666666665,3.083333333333333,24.67875,0.46608333333333335,69.66666666666667
In1.99Cu0.01Se2.99,1.45,In1.99 Cu0.01 Se2.99,39.97194388777556,83.36673346693387,470.10825651302605,14.793587174348698,128.79759519038078,2.241623246492986,1.997995991983968,2.7955911823647295,10.0,14.793587174348698,3.192384769539078,3.19438877755511,25.22823647294589,0.4787595190380762,64.27254509018036
In1.9Cu0.1Se2.9,1.45,In1.9 Cu0.1 Se2.9,39.71428571428571,83.06122448979592,486.714693877551,14.73469387755102,128.77551020408163,2.238163265306122,1.9795918367346936,2.7551020408163263,10.0,14.73469387755102,3.122448979591837,3.1428571428571423,24.973265306122446,0.4728775510204081,66.77551020408163
In11.3Bi14.7S38,1.45,In11.3 Bi14.7 S38,37.215625,85.2453125,431.508359375,15.240625,121.409375,2.310125,2.0,3.2406249999999996,4.0625,12.518749999999999,2.759375,2.759375,27.16256640625,1.3074375,68.8609375
In1Ag1.75Sb5.75Se11,0.94,In1 Ag1.75 Sb5.75 Se11,40.94871794871795,84.94871794871794,678.0314102564103,15.102564102564102,128.97435897435898,2.3074358974358975,1.9102564102564104,3.1923076923076925,10.0,15.102564102564102,2.269230769230769,2.358974358974359,26.637307692307694,0.4507179487179487,84.16666666666667
In1Ga1Cu1S3.5,1.84,In1 Ga1 Cu1 S3.5,25.384615384615383,80.15384615384616,530.7215384615386,14.307692307692308,117.46153846153847,2.2338461538461543,1.8461538461538463,2.4615384615384617,4.615384615384615,8.923076923076923,2.6153846153846154,2.769230769230769,22.221778846153846,1.1856923076923076,103.53846153846153
In1Hg4As2.5Br3.5,1.71,In1 Hg4 As2.5 Br3.5,52.18181818181818,81.95454545454545,456.57545454545453,14.363636363636363,126.13636363636364,2.326363636363636,2.0,2.3636363636363638,10.0,19.454545454545453,1.4545454545454546,1.4545454545454546,25.802531347963637,0.4635909090909091,131.0909090909091
In1Sb0.01As0.99,0.17,In1 Sb0.01 As0.99,41.09,79.505,758.9439,14.0,130.6,1.9793500000000002,2.0,2.0,10.0,14.0,4.0,4.0,23.264425000000003,0.0,152.5
In1Sb0.1As0.9,0.14,In1 Sb0.1 As0.9,41.9,79.55000000000001,750.5640000000001,14.0,131.5,1.9735,2.0,2.0,10.0,14.0,4.0,4.0,23.68675,0.0,152.5
In1Sb0.2As0.8,0.12,In1 Sb0.2 As0.8,42.800000000000004,79.6,741.2529999999999,14.0,132.5,1.967,2.0,2.0,10.0,14.0,4.0,4.0,24.156000000000002,0.0,152.5
In1Sb0.3As0.7,0.11,In1 Sb0.3 As0.7,43.699999999999996,79.65,731.942,14.0,133.5,1.9605000000000001,2.0,1.9999999999999998,10.0,14.0,4.0,4.0,24.62525,0.0,152.5
In1Sb0.4As0.6,0.1,In1 Sb0.4 As0.6,44.6,79.7,722.631,14.0,134.5,1.9540000000000002,2.0,2.0,10.0,14.0,4.0,4.0,25.0945,0.0,152.5
In1Sb0.5As0.5,0.1,In1 Sb0.5 As0.5,45.5,79.75,713.3199999999999,14.0,135.5,1.9474999999999998,2.0,2.0,10.0,14.0,4.0,4.0,25.56375,0.0,152.5
In1Sb0.6As0.4,0.13,In1 Sb0.6 As0.4,46.4,79.8,704.009,14.0,136.5,1.9409999999999998,2.0,2.0,10.0,14.0,4.0,4.0,26.033,0.0,152.5
In1Sb0.7As0.3,0.16,In1 Sb0.7 As0.3,47.3,79.85,694.698,14.0,137.5,1.9344999999999999,2.0,1.9999999999999998,10.0,14.0,4.0,4.0,26.502250000000004,0.0,152.5
In1Sb0.8As0.2,0.21,In1 Sb0.8 As0.2,48.2,79.9,685.387,14.0,138.5,1.928,2.0,2.0,10.0,14.0,4.0,4.0,26.971500000000002,0.0,152.5
In1Sb0.99As0.01,0.35,In1 Sb0.99 As0.01,49.910000000000004,79.995,667.6961,14.0,140.4,1.9156499999999999,2.0,1.9999999999999998,10.0,14.0,4.0,4.0,27.863075000000002,0.0,152.50000000000003
In1Sb0.9As0.1,0.27,In1 Sb0.9 As0.1,49.1,79.95,676.076,14.0,139.5,1.9215,2.0,2.0,10.0,14.0,4.0,4.0,27.44075,0.0,152.5
In2As2Cl2O5,4.62,In2 As2 Cl2 O5,21.636363636363637,85.54545454545455,332.42727272727274,15.454545454545455,96.0,2.858181818181818,2.0,3.4545454545454546,3.6363636363636362,9.090909090909092,2.5454545454545454,2.5454545454545454,17.035454545454545,0.45327272727272727,72.54545454545455
In2B(PO4)3,5.39,In2 B1 P3 O12,13.555555555555555,84.16666666666667,267.6111111111111,15.333333333333334,82.27777777777777,2.9694444444444446,2.0,3.3333333333333335,1.1111111111111112,6.444444444444445,2.6666666666666665,2.6666666666666665,12.92573412697778,0.3555,33.0
In2Bi3Se7I,1.38,In2 Bi3 Se7 I1,49.07692307692308,86.6923076923077,487.50384615384615,15.384615384615385,131.30769230769232,2.3176923076923077,2.0,3.3846153846153846,10.0,18.615384615384617,2.6153846153846154,2.6153846153846154,28.601923076923075,0.5119230769230769,36.61538461538461
In2Cu1S3.5,1.43,In2 Cu1 S3.5,28.153846153846153,80.3076923076923,550.2353846153845,14.307692307692308,120.53846153846153,2.2292307692307696,1.8461538461538463,2.4615384615384617,4.615384615384615,8.923076923076923,2.6153846153846154,2.769230769230769,23.052932692307692,1.1856923076923076,115.07692307692308
In2FeSe4,1.15,In2 Fe1 Se4,37.142857142857146,80.14285714285714,663.7857142857143,14.0,128.0,2.2271428571428573,2.0,2.5714285714285716,9.428571428571429,14.0,2.5714285714285716,3.142857142857143,23.275714285714287,0.4565714285714286,80.42857142857143
In2GeTe3,0.68,In2 Ge1 Te3,47.666666666666664,83.16666666666667,706.48,14.666666666666666,136.33333333333334,1.9783333333333335,2.0,2.6666666666666665,10.0,14.666666666666666,3.3333333333333335,3.3333333333333335,29.302499999983336,0.29583333333333334,159.83333333333334
In2Hg6(P2Cl3)3,3.13,In2 Hg6 P6 Cl9,35.69565217391305,83.47826086956522,248.41826086956522,14.826086956521738,114.6086956521739,2.4843478260869567,2.0,2.8260869565217392,3.4782608695652173,11.956521739130435,1.608695652173913,1.608695652173913,24.167149817939134,1.3994347826086955,80.95652173913044
In2HgS4,2.0,In2 Hg1 S4,34.57142857142857,81.85714285714286,378.18,14.571428571428571,119.42857142857143,2.2685714285714287,2.0,2.5714285714285716,4.285714285714286,10.857142857142858,2.5714285714285716,2.5714285714285716,25.272155172414283,1.2582857142857142,103.42857142857143
In2HgSe4,0.6,In2 Hg1 Se4,44.857142857142854,82.42857142857143,438.54571428571427,14.571428571428571,128.0,2.2514285714285713,2.0,2.5714285714285716,10.0,16.571428571428573,2.5714285714285716,2.5714285714285716,25.348226600985715,0.4565714285714286,71.42857142857143
In2O3,2.8,In2 O3,24.4,82.2,204.78,14.8,96.4,2.7760000000000002,2.0,2.8,4.0,8.8,3.2,3.2,15.167000000000002,0.0,62.8
In2S3,2.0,In2 S3,29.2,82.8,404.916,14.8,119.8,2.2600000000000002,2.0,2.8,4.0,8.8,3.2,3.2,25.176125000000003,1.3212,97.6
In2Se2O7,2.97,In2 Se2 O7,20.181818181818183,85.18181818181819,202.8272727272727,15.454545454545455,89.63636363636364,2.976363636363636,2.0,3.4545454545454546,3.6363636363636362,9.090909090909092,2.5454545454545454,2.5454545454545454,14.917727272727275,0.14527272727272728,35.45454545454545
In2Te,0.46,In2 Te1,50.0,80.0,527.3866666666667,14.0,140.66666666666666,1.8866666666666667,2.0,2.0,10.0,14.0,4.0,4.0,27.761111111099996,0.15466666666666667,143.33333333333334
In3AgTe5,0.68,In3 Ag1 Te5,50.44444444444444,82.22222222222223,681.9422222222222,14.444444444444445,140.11111111111111,1.9744444444444444,1.8888888888888888,2.5555555555555554,10.0,14.444444444444445,2.7777777777777777,2.888888888888889,29.214074074055556,0.25777777777777783,155.77777777777777
In3CuS5,1.2,In3 Cu1 S5,28.444444444444443,81.0,509.8688888888889,14.444444444444445,120.33333333333333,2.2377777777777776,1.8888888888888888,2.5555555555555554,4.444444444444445,8.88888888888889,2.7777777777777777,2.888888888888889,23.64270833333333,1.2233333333333334,110.22222222222223
In3CuSe5,0.6,In3 Cu1 Se5,38.44444444444444,81.55555555555556,568.5577777777778,14.444444444444445,128.66666666666666,2.2211111111111115,1.8888888888888888,2.5555555555555554,10.0,14.444444444444445,2.7777777777777777,2.888888888888889,23.71666666666667,0.4438888888888889,79.11111111111111
In4As5(BrO4)3,4.22,In4 As5 Br3 O12,23.416666666666668,85.375,359.3333333333333,15.416666666666666,96.45833333333333,2.8408333333333338,2.0,3.4166666666666665,5.0,10.416666666666666,2.5833333333333335,2.5833333333333335,16.900625,0.182125,71.75
In4Bi3S10,1.42,In4 Bi3 S10,35.588235294117645,84.58823529411765,425.63529411764705,15.117647058823529,121.29411764705883,2.2929411764705883,2.0,3.1176470588235294,4.117647058823529,11.705882352941176,2.8823529411764706,2.8823529411764706,26.691691176470584,1.2952941176470587,76.0
In4Cu2Te7,1.1,In4 Cu2 Te7,47.53846153846154,81.38461538461539,730.243076923077,14.307692307692308,138.30769230769232,1.9707692307692308,1.8461538461538463,2.4615384615384617,10.0,14.307692307692308,2.6153846153846154,2.769230769230769,27.886410256392306,0.24984615384615386,159.23076923076923
In4S5,0.9,In4 S5,30.666666666666668,82.22222222222223,406.7555555555556,14.666666666666666,121.44444444444444,2.2244444444444444,2.0,2.6666666666666665,4.444444444444445,9.11111111111111,3.3333333333333335,3.3333333333333335,25.10826388888889,1.2233333333333334,100.66666666666667
In4Se3,0.64,In4 Se3,42.57142857142857,81.0,457.2857142857143,14.285714285714286,132.57142857142858,2.11,2.0,2.2857142857142856,10.0,14.285714285714286,3.7142857142857144,3.7142857142857144,24.97142857142857,0.34242857142857147,85.42857142857143
In5AgS8,1.76,In5 Ag1 S8,30.0,81.71428571428571,463.6114285714286,14.571428571428571,121.07142857142857,2.2478571428571428,1.9285714285714286,2.642857142857143,4.285714285714286,8.857142857142858,2.9285714285714284,3.0,24.566071428571426,1.2582857142857142,105.71428571428571
In5AgTe8,0.47,In5 Ag1 Te8,50.57142857142857,82.85714285714286,654.64,14.571428571428571,139.92857142857142,1.9735714285714288,1.9285714285714286,2.642857142857143,10.0,14.571428571428571,2.9285714285714284,3.0,29.69547619045714,0.2651428571428572,152.57142857142858
In5CuS8,1.34,In5 Cu1 S8,28.714285714285715,81.64285714285714,472.38571428571424,14.571428571428571,120.14285714285714,2.245714285714286,1.9285714285714286,2.642857142857143,4.285714285714286,8.857142857142858,2.9285714285714284,3.0,24.190357142857142,1.2582857142857142,105.71428571428571
In5Se6,0.14,In5 Se6,40.81818181818182,82.63636363636364,464.79545454545456,14.636363636363637,130.0,2.1999999999999997,2.0,2.6363636363636362,10.0,14.636363636363637,3.3636363636363638,3.3636363636363638,25.16545454545455,0.4358181818181819,70.81818181818181
In9AgTe14,1.5,In9 Ag1 Te14,50.666666666666664,83.33333333333333,634.1633333333333,14.666666666666666,139.79166666666666,1.9729166666666667,1.9583333333333333,2.7083333333333335,10.0,14.666666666666666,3.0416666666666665,3.0833333333333335,30.056527777758333,0.27066666666666667,150.16666666666666
InAgO2,4.2,In1 Ag1 O2,28.0,78.5,443.57,14.0,104.75,2.6475,1.75,2.25,5.0,9.0,2.25,2.5,14.700000000000001,0.0,97.0
InAgTe2,0.93,In1 Ag1 Te2,50.0,80.0,777.5,14.0,140.75,1.9775,1.75,2.25,10.0,14.0,2.25,2.5,27.52916666665,0.232,167.0
InAsI,0.41,In1 As1 I1,45.0,85.0,635.5333333333333,15.0,133.33333333333334,2.2066666666666666,2.0,3.0,10.0,15.0,3.0,3.0,29.816666666666666,0.35400000000000004,123.0
InBi2S4Br,1.5,In1 Bi2 S4 Br1,39.25,86.75,417.22375,15.5,122.25,2.3875,2.0,3.5,5.0,14.0,2.5,2.5,27.8484375,1.283125,63.375
InBi2S4Cl,1.5,In1 Bi2 S4 Cl1,37.0,86.625,405.44874999999996,15.5,120.0,2.4125,2.0,3.5,3.75,12.75,2.5,2.5,27.225625,1.412625,63.375
InBi2Se4Br,1.21,In1 Bi2 Se4 Br1,48.25,87.25,470.04375000000005,15.5,129.75,2.3725,2.0,3.5,10.0,19.0,2.5,2.5,27.915000000000003,0.5816250000000001,35.375
InCuGeSe4,1.3,In1 Cu1 Ge1 Se4,35.142857142857146,82.0,710.7028571428572,14.571428571428571,124.85714285714286,2.27,1.8571428571428572,2.7142857142857144,10.0,14.571428571428571,2.4285714285714284,2.5714285714285716,23.145,0.5112857142857143,92.14285714285714
InCuS2,1.5,In1 Cu1 S2,27.5,78.75,641.06,14.0,121.0,2.21,1.75,2.25,5.0,9.0,2.25,2.5,21.7259375,1.101,126.0
InHg7S6Cl5,2.54,In1 Hg7 S6 Cl5,41.578947368421055,82.63157894736842,276.7447368421052,14.631578947368421,116.10526315789474,2.476842105263158,2.0,2.6315789473684212,4.2105263157894735,14.0,1.1578947368421053,1.1578947368421053,25.164834392015788,1.3514210526315789,107.42105263157895
InPS4,3.12,In1 P1 S4,21.333333333333332,85.0,383.41499999999996,15.333333333333334,111.5,2.3816666666666664,2.0,3.3333333333333335,1.6666666666666667,7.0,2.6666666666666665,2.6666666666666665,24.99628968253333,1.7388333333333332,70.16666666666667
InSb2S4Br,1.8,In1 Sb2 S4 Br1,31.25,86.5,507.06875,15.5,120.0,2.395,2.0,3.5,5.0,10.5,2.5,2.5,27.500937499999996,1.283125,101.875
InSb2S4Cl,1.8,In1 Sb2 S4 Cl1,29.0,86.375,495.29375,15.5,117.75,2.42,2.0,3.5,3.75,9.25,2.5,2.5,26.878124999999997,1.412625,101.875
InSb2Se4Br,1.35,In1 Sb2 Se4 Br1,40.25,87.0,559.88875,15.5,127.5,2.38,2.0,3.5,10.0,15.5,2.5,2.5,27.5675,0.5816250000000001,73.875
InSn2As2Se,0.2,In1 Sn2 As2 Se1,41.5,82.0,685.6516666666666,14.5,129.66666666666666,2.1016666666666666,2.0,2.5,10.0,14.5,3.5,3.5,26.850000000000005,0.13316666666666668,127.83333333333333
InSnAsSe,0.26,In1 Sn1 As1 Se1,41.5,82.0,629.7075,14.5,130.0,2.1174999999999997,2.0,2.5,10.0,14.5,3.5,3.5,26.41,0.19975,115.0
Ir0.67S2,2.0,Ir0.67 S2,31.307116104868918,80.97378277153558,978.2209737827717,14.243445692883896,114.03370786516855,2.4846441947565543,2.0,2.9962546816479403,1.7565543071161052,10.265917602996256,1.4981273408239701,2.250936329588015,22.881816479400747,1.649438202247191,108.89513108614233
Ir0.67Se2,0.45,Ir0.67 Se2,44.79026217228465,81.72284644194757,1057.3520599250937,14.243445692883896,125.26966292134833,2.4621722846441947,2.0,2.9962546816479403,9.247191011235955,17.756554307116104,1.4981273408239701,2.250936329588015,22.981535580524348,0.5985018726591761,66.94756554307116
IrS2,0.9,Ir1 S2,36.333333333333336,78.66666666666667,1171.9066666666668,13.666666666666666,117.0,2.4533333333333336,2.0,2.6666666666666665,2.3333333333333335,11.666666666666666,1.3333333333333333,2.3333333333333335,21.927916666666665,1.468,121.66666666666667
IrSe2,0.9,Ir1 Se2,48.333333333333336,79.33333333333333,1242.3333333333333,13.666666666666666,127.0,2.433333333333333,2.0,2.6666666666666665,9.0,18.333333333333332,1.3333333333333333,2.3333333333333335,22.01666666666667,0.5326666666666667,84.33333333333333
IrSeS,1.2,Ir1 Se1 S1,42.333333333333336,79.0,1207.1200000000001,13.666666666666666,122.0,2.4433333333333334,2.0,2.6666666666666665,5.666666666666667,15.0,1.3333333333333333,2.3333333333333335,21.972291666666667,1.0003333333333333,103.0
K(GeSe2)2,1.8,K1 Ge2 Se4,31.285714285714285,73.85714285714286,676.4757142857143,13.285714285714286,131.85714285714286,2.1485714285714286,1.8571428571428572,2.857142857142857,8.571428571428571,13.285714285714286,2.2857142857142856,2.4285714285714284,31.828095238099998,0.5660000000000001,105.0
K0.8Sn2Hg1.2S8,2.78,K0.8 Sn2 Hg1.2 S8,28.266666666666666,79.3,388.954,14.266666666666666,119.89999999999999,2.3013333333333335,1.9333333333333333,3.0,2.6666666666666665,9.0,2.0,2.066666666666667,30.136286398470002,1.468,102.03333333333335
K1.25Bi7.25Pb3.5Se15,0.53,K1.25 Bi7.25 Pb3.5 Se15,52.68518518518518,83.17592592592592,514.0628703703704,14.777777777777779,134.7314814814815,2.299074074074074,1.9537037037037037,3.287037037037037,9.537037037037036,20.35185185185185,2.435185185185185,2.4814814814814814,30.276141975310185,0.44388888888888894,50.76851851851852
K1.46Sn3.09Bi7.45Se15,0.39,K1.46 Sn3.09 Bi7.45 Se15,48.540370370370375,82.49185185185185,500.6596666666667,14.684074074074076,134.38851851851854,2.242688888888889,1.9459259259259258,3.278888888888889,9.459259259259259,18.547037037037036,2.396666666666667,2.450740740740741,31.254217901236373,0.44388888888888894,39.608518518518515
K1.83Cd1.83Bi2.17S6,1.37,K1.83 Cd1.83 Bi2.17 S6,33.70414201183432,71.69991546914625,440.8098478444632,12.877430262045646,134.08030431107355,2.0673457311918852,1.8453085376162297,2.5790363482671173,3.3812341504649197,10.373626373626374,1.5646661031276414,1.7193575655114117,33.447489433648435,1.1168216398985629,103.13863060016907
K10Fe4Sn4S17,2.2,K10 Fe4 Sn4 S17,21.885714285714286,59.02857142857143,549.4782857142857,10.571428571428571,139.97142857142856,1.9205714285714286,1.7142857142857142,2.1714285714285713,1.8285714285714285,5.714285714285714,1.4285714285714286,2.1714285714285713,38.44295833334285,1.0695428571428571,141.71428571428572
K10Mn4Sn4S17,2.3,K10 Mn4 Sn4 S17,21.771428571428572,58.68571428571428,516.106857142857,10.457142857142857,140.77142857142857,1.8885714285714283,1.7142857142857142,2.1714285714285713,1.7142857142857142,5.6,1.4285714285714286,2.2857142857142856,38.415253899845716,1.0695428571428571,140.34285714285716
K10Sn3(PSe3)8,1.82,K10 Sn3 P8 Se24,28.355555555555554,68.22222222222223,428.33200000000005,12.355555555555556,137.4,2.062222222222222,1.7777777777777777,2.8,6.0,10.577777777777778,1.8666666666666667,2.088888888888889,36.30141269841333,0.7150222222222222,68.11111111111111
K10Zn4Ge4S17,3.34,K10 Zn4 Ge4 S17,20.285714285714285,60.51428571428571,502.3925714285714,11.028571428571428,136.65714285714284,1.9057142857142855,1.7142857142857142,2.1714285714285713,2.2857142857142856,6.171428571428572,1.4285714285714286,1.7142857142857142,37.63724404762857,1.1133142857142855,147.31428571428572
K2.15Sb8.15Pb1.7Se15,0.6,K2.15 Sb8.15 Pb1.7 Se15,40.95925925925926,80.44074074074075,611.8660555555556,14.37777777777778,133.9814814814815,2.2474629629629628,1.92037037037037,3.2537037037037035,9.203703703703704,15.25925925925926,2.2685185185185186,2.348148148148148,31.51779012345944,0.44388888888888894,90.28703703703704
K2Ag3Sb3S7,2.2,K2 Ag3 Sb3 S7,29.6,71.46666666666667,653.8473333333334,12.8,132.86666666666667,2.1093333333333333,1.6666666666666667,2.466666666666667,4.0,8.133333333333333,1.5333333333333334,1.8666666666666667,31.35943055556,1.0276,141.4
K2AgSnSe4,1.8,K2 Ag1 Sn1 Se4,33.875,63.375,548.63375,11.375,146.25,1.9662499999999998,1.625,2.25,7.5,11.375,1.5,1.875,37.43854166667499,0.3995,110.0
K2Al2B2O7,6.89,K2 Al2 B2 O7,10.0,69.61538461538461,586.123076923077,12.76923076923077,98.3076923076923,2.5399999999999996,1.8461538461538463,2.4615384615384617,0.0,4.3076923076923075,2.6153846153846154,2.769230769230769,19.78871794872308,0.23446153846153847,101.84615384615384
K2Au(IO3)5,2.65,K2 Au1 I5 O15,21.82608695652174,80.73913043478261,207.24521739130432,14.695652173913043,96.82608695652173,3.003478260869565,1.8695652173913044,3.6956521739130435,2.608695652173913,8.782608695652174,1.5217391304347827,1.6521739130434783,22.372318840582608,0.23086956521739133,51.43478260869565
K2BaNb2S11,1.77,K2 Ba1 Nb2 S11,22.0,67.3125,715.31375,11.875,131.5,2.131875,1.75,2.75,0.5,5.0,1.375,2.375,33.113684895837494,1.513875,119.6875
K2Cd(PSe3)2,2.58,K2 Cd1 P2 Se6,29.09090909090909,70.54545454545455,442.3527272727273,12.727272727272727,134.9090909090909,2.091818181818182,1.8181818181818181,2.727272727272727,6.363636363636363,10.909090909090908,1.6363636363636365,1.8181818181818181,33.30625541125455,0.7312727272727273,67.27272727272727
K2Cd2Te3,1.93,K2 Cd2 Te3,41.42857142857143,59.42857142857143,575.64,10.571428571428571,158.28571428571428,1.6171428571428572,1.7142857142857142,1.7142857142857142,7.142857142857143,10.571428571428571,0.8571428571428571,1.1428571428571428,41.35619047618571,0.19885714285714287,186.0