composition,gap expt,composition_pmg,MagpieData mean Number,MagpieData mean MendeleevNumber,MagpieData mean MeltingT,MagpieData mean Column,MagpieData mean CovalentRadius,MagpieData mean Electronegativity,MagpieData mean NsValence,MagpieData mean NpValence,MagpieData mean NdValence,MagpieData mean NValence,MagpieData mean NpUnfilled,MagpieData mean NUnfilled,MagpieData mean GSvolume_pa,MagpieData mean GSbandgap,MagpieData mean SpaceGroupNumber
PPdS,1.38,P1 Pd1 S1,25.666666666666668,77.66666666666667,844.57,13.666666666666666,117.0,2.3233333333333337,1.3333333333333333,2.3333333333333335,3.3333333333333335,7.0,1.6666666666666667,1.6666666666666667,20.922371031733334,1.2756666666666667,99.0
PPdSe,0.15,P1 Pd1 Se1,31.666666666666668,78.0,879.7833333333333,13.666666666666666,122.0,2.3133333333333335,1.3333333333333333,2.3333333333333335,6.666666666666667,10.333333333333334,1.6666666666666667,1.6666666666666667,20.966746031733333,0.8079999999999999,80.33333333333333
PRuS,1.4,P1 Ru1 S1,25.0,75.66666666666667,1104.22,13.0,119.33333333333333,2.3233333333333337,1.6666666666666667,2.3333333333333335,2.3333333333333335,6.333333333333333,1.6666666666666667,3.0,20.622371031733334,1.2756666666666667,88.66666666666667
PSe,2.5,P1 Se1,24.5,86.0,405.65,15.5,113.5,2.37,2.0,3.5,5.0,10.5,2.5,2.5,24.2451190476,1.212,8.0
Pb17(Cl9O4)2,3.44,Pb17 Cl18 O8,41.02325581395349,87.55813953488372,319.47837209302327,15.627906976744185,112.69767441860465,2.883953488372093,2.0,3.627906976744186,3.953488372093023,15.116279069767442,2.372093023255814,2.372093023255814,23.061976744186047,1.043581395348837,117.97674418604652
Pb1Se0.01S0.99,0.37,Pb1 Se0.01 S0.99,49.09,84.505,495.01320000000004,15.0,125.57499999999999,2.4548500000000004,2.0,3.0,5.05,17.05,3.0,3.0,26.949103125,1.093985,147.22
Pb1Se0.5S0.5,0.33,Pb1 Se0.5 S0.5,53.5,84.75,520.895,15.0,129.25,2.4475,2.0,3.0,7.5,19.5,3.0,3.0,26.98171875,0.75025,133.5
Pb1Se0.95S0.05,0.26,Pb1 Se0.95 S0.05,57.55,84.97500000000001,544.6639999999999,15.0,132.625,2.4407499999999995,2.0,3.0,9.75,21.75,3.0,3.0,27.011671874999998,0.434575,120.9
Pb1Se0.99S0.01,0.26,Pb1 Se0.99 S0.01,57.91,84.995,546.7768,15.0,132.925,2.44015,2.0,3.0,9.95,21.950000000000003,3.0,3.0,27.014334375,0.406515,119.78
Pb1Se0.9S0.1,0.27,Pb1 Se0.9 S0.1,57.099999999999994,84.95000000000002,542.023,15.0,132.25,2.4415,2.0,3.0,9.5,21.5,3.0,3.0,27.00834375,0.46965,122.3
Pb2O3,1.67,Pb2 O3,37.6,84.6,273.12399999999997,15.2,98.0,2.996,2.0,3.2,4.0,14.8,2.8,2.8,16.707,0.0,97.2
Pb2SeN2O9,3.76,Pb2 Se1 N2 O9,20.285714285714285,85.57142857142857,165.32285714285715,15.571428571428571,82.0,3.1607142857142856,2.0,3.5714285714285716,2.142857142857143,9.714285714285714,2.4285714285714284,2.4285714285714284,13.830178571428572,0.9766428571428571,68.57142857142857
Pb3O4,2.12,Pb3 O4,39.714285714285715,84.42857142857143,288.7185714285714,15.142857142857142,100.28571428571429,2.9642857142857144,2.0,3.142857142857143,4.285714285714286,15.428571428571429,2.857142857142857,2.857142857142857,17.25,0.0,103.28571428571429
Pb3Se2(BrO3)2,3.73,Pb3 Se2 Br2 O6,33.23076923076923,87.15384615384616,280.786923076923,15.692307692307692,101.07692307692308,2.973076923076923,2.0,3.6923076923076925,5.384615384615385,14.307692307692308,2.3076923076923075,2.3076923076923075,19.212307692307693,0.3470769230769231,69.46153846153847
PbN6,2.98,Pb1 N6,17.714285714285715,81.85714285714286,139.84428571428572,14.857142857142858,81.71428571428571,2.9385714285714286,2.0,2.857142857142857,1.4285714285714286,8.285714285714286,3.142857142857143,3.142857142857143,16.67464285714286,5.517428571428572,198.42857142857142
PbSeO4,4.3,Pb1 Se1 O4,24.666666666666668,86.33333333333333,218.96833333333336,15.666666666666666,88.33333333333333,3.106666666666667,2.0,3.6666666666666665,3.3333333333333335,11.333333333333334,2.3333333333333335,2.3333333333333335,15.075000000000001,0.13316666666666668,47.833333333333336
Pd(IO3)2,1.31,Pd1 I2 O6,22.22222222222222,86.22222222222223,325.6166666666667,15.555555555555555,90.33333333333333,3.128888888888889,1.7777777777777777,3.7777777777777777,3.3333333333333335,8.88888888888889,1.5555555555555556,1.5555555555555556,17.23,0.23600000000000002,47.22222222222222
PdO,0.8,Pd1 O1,27.0,74.5,941.425,13.0,102.5,2.8200000000000003,1.0,2.0,5.0,8.0,1.0,1.0,11.7575,0.0,118.5
PdS,0.5,Pd1 S1,31.0,75.0,1108.205,13.0,122.0,2.39,1.0,2.0,5.0,8.0,1.0,1.0,20.0984375,1.101,147.5
PdS2,0.75,Pd1 S2,26.0,79.33333333333333,868.2566666666667,14.0,116.33333333333333,2.4533333333333336,1.3333333333333333,2.6666666666666665,3.3333333333333335,7.333333333333333,1.3333333333333333,1.3333333333333333,21.994583333333335,1.468,121.66666666666667
PdSe,0.2,Pd1 Se1,40.0,75.5,1161.025,13.0,129.5,2.375,1.0,2.0,10.0,13.0,1.0,1.0,20.165,0.3995,119.5
PdSe2,0.4,Pd1 Se2,38.0,80.0,938.6833333333334,14.0,126.33333333333333,2.433333333333333,1.3333333333333333,2.6666666666666665,10.0,14.0,1.3333333333333333,1.3333333333333333,22.083333333333332,0.5326666666666667,84.33333333333333
Pr(InS2)3,1.14,Pr1 In3 S6,30.2,77.0,482.341,13.8,125.9,2.195,2.0,2.7,3.0,8.0,2.7,3.8,26.317625,1.3212,103.1
Pr1.29Lu0.71S3,1.38,Pr1.29 Lu0.71 S3,34.903999999999996,63.008,818.5600000000001,10.8,141.928,2.0198799999999997,2.0,2.4,0.142,7.303999999999999,1.2,5.316000000000001,28.775104999999996,1.3212,119.6
Pr10Se14O,1.89,Pr10 Se14 O1,42.96,60.12,760.432,10.8,151.04,2.0176,2.0,2.4,5.6,11.2,1.2,5.6,29.1494,0.44744,85.92
Pr1Te1.9,1.0,Pr1 Te1.9,54.413793103448285,64.82758620689656,888.6393103448277,11.517241379310345,160.41379310344828,1.76551724137931,2.0,2.6206896551724137,6.551724137931035,12.206896551724137,1.3103448275862069,5.103448275862069,35.077701149403445,0.30400000000000005,166.48275862068965
Pr2Ge2Se7,1.32,Pr2 Ge2 Se7,38.18181818181818,74.0909090909091,753.5272727272727,13.272727272727273,135.0909090909091,2.1936363636363634,2.0,2.909090909090909,8.181818181818182,13.636363636363637,2.0,4.0,27.16363636363636,0.5780909090909091,85.0909090909091
Pr2GeSe5,1.8,Pr2 Ge1 Se5,40.0,69.75,761.175,12.5,140.75,2.1275,2.0,2.75,7.5,13.0,1.75,4.5,27.994375,0.54725,85.375
Pr2S3,2.6,Pr2 S3,33.2,59.6,714.616,10.8,144.2,2.0,2.0,2.4,0.0,5.6,1.2,5.6,29.742124999999998,1.3212,119.6
Pr2Se3,1.8,Pr2 Se3,44.0,60.2,778.0,10.8,153.2,1.982,2.0,2.4,6.0,11.6,1.2,5.6,29.822000000000003,0.47940000000000005,86.0
Pr2Te4O11,3.65,Pr2 Te4 O11,24.352941176470587,79.47058823529412,347.1435294117647,14.470588235294118,99.05882352941177,2.8529411764705883,2.0,3.5294117647058822,2.3529411764705883,8.235294117647058,1.7647058823529411,3.0588235294117645,18.268137254894118,0.1091764705882353,66.3529411764706
Pr4InSbSe9,1.89,Pr4 In1 Sb1 Se9,42.8,68.6,706.3686666666666,12.266666666666667,144.86666666666667,2.0866666666666664,2.0,2.6666666666666665,7.333333333333333,12.8,1.7333333333333334,4.666666666666667,28.78666666666667,0.47940000000000005,80.46666666666667
Pr4Te7,0.46,Pr4 Te7,54.54545454545455,63.45454545454545,897.6927272727272,11.272727272727273,161.63636363636363,1.747272727272727,2.0,2.5454545454545454,6.363636363636363,12.0,1.2727272727272727,5.2727272727272725,35.09484848482727,0.2952727272727273,167.27272727272728
PrAs,1.0,Pr1 As1,46.0,50.5,1147.0,9.0,161.0,1.655,2.0,1.5,5.0,10.0,1.5,7.0,28.924999999999997,0.0,180.0
PrB6,4.9,Pr1 B6,12.714285714285714,64.14285714285714,2184.5714285714284,11.571428571428571,101.0,1.9100000000000001,2.0,0.8571428571428571,0.0,3.2857142857142856,4.285714285714286,5.857142857142857,11.244285714285715,1.3062857142857143,170.0
PrBN2,4.0,Pr1 B1 N2,19.5,63.25,919.525,11.5,107.25,2.3125,2.0,1.75,0.0,4.5,2.75,5.5,18.096249999999998,3.5995,187.0
PrCuSO,3.03,Pr1 Cu1 S1 O1,28.0,64.0,751.2325000000001,11.5,126.5,2.2624999999999997,1.75,2.0,2.5,7.0,1.0,4.0,20.40921875,0.5505,125.25
PrLuSe3,1.56,Pr1 Lu1 Se3,46.4,65.0,924.4,10.8,150.0,2.01,2.0,2.4,6.2,14.0,1.2,5.2,28.46,0.47940000000000005,86.0
PrMoO4F,3.64,Pr1 Mo1 O4 F1,20.285714285714285,72.57142857142857,624.6714285714286,12.857142857142858,96.85714285714286,3.0042857142857144,1.8571428571428572,3.0,0.7142857142857143,6.0,1.2857142857142858,3.7142857142857144,13.927499999999998,0.2814285714285714,69.42857142857143
PrO,0.55,Pr1 O1,33.5,52.0,629.4,9.5,134.5,2.285,2.0,2.0,0.0,5.5,1.0,6.5,22.39,0.0,103.0
PrSb,0.66,Pr1 Sb1,55.0,51.0,1053.8899999999999,9.0,171.0,1.5899999999999999,2.0,1.5,5.0,10.0,1.5,7.0,33.6175,0.0,180.0
PrTaN2O,2.0,Pr1 Ta1 N2 O1,30.8,63.2,934.9800000000001,10.8,116.2,2.43,2.0,2.0,0.6,8.0,1.6,5.2,18.487500000000004,2.5748,164.6
PrTl2InSe4,0.93,Pr1 Tl2 In1 Se4,50.75,75.0,595.46875,13.25,139.375,2.04375,2.0,2.375,8.75,17.0,2.875,4.25,27.179375,0.3995,97.125
PrTlSe2,1.18,Pr1 Tl1 Se2,52.0,67.75,692.25,12.0,147.0,1.9625,2.0,2.25,7.5,16.0,2.25,5.0,28.60625,0.3995,104.0
Pt0.97S2,0.95,Pt0.97 S2,36.24915824915825,79.83501683501684,928.241750841751,14.040404040404043,115.12457912457911,2.4820202020202022,1.6734006734006734,2.6936026936026938,2.93939393939394,11.87878787878788,1.3468013468013469,2.0,22.270420875420875,1.4828282828282828,120.62289562289563
PtS2,0.75,Pt1 S2,36.666666666666664,79.66666666666667,939.3733333333333,14.0,115.33333333333333,2.48,1.6666666666666667,2.6666666666666665,3.0,12.0,1.3333333333333333,2.0,22.197916666666668,1.468,121.66666666666667
PtSe2,0.1,Pt1 Se2,48.666666666666664,80.33333333333333,1009.8000000000001,14.0,125.33333333333333,2.4599999999999995,1.6666666666666667,2.6666666666666665,9.666666666666666,18.666666666666668,1.3333333333333333,2.0,22.286666666666665,0.5326666666666667,84.33333333333333
Rb1.45Sb7.45Pb3.1Se15,0.45,Rb1.45 Sb7.45 Pb3.1 Se15,44.36296296296296,82.41296296296296,609.5599629629629,14.68888888888889,133.59814814814814,2.2938703703703704,1.9462962962962962,3.2796296296296297,9.462962962962964,16.296296296296298,2.3981481481481484,2.451851851851852,31.207800925925927,0.44388888888888894,91.71296296296296
Rb1.54Cd1.54Bi2.46S6,1.33,Rb1.54 Cd1.54 Bi2.46 S6,37.35528596187176,73.96187175043327,438.96630849220105,13.251299826689777,134.71750433275562,2.1069844020797226,1.8665511265164645,2.7192374350086657,3.466204506065858,11.036395147313693,1.6793760831889082,1.812824956672444,35.13979202772964,1.1448873483535529,95.40207972270365
Rb2AgPS4,2.6,Rb2 Ag1 P1 S4,25.0,63.5,466.32375,11.5,139.0,2.01,1.625,2.375,1.25,5.25,1.375,1.75,40.436592261899996,1.304125,120.625
Rb2BaNb2Se11,1.53,Rb2 Ba1 Nb2 Se11,36.625,68.125,784.9325,11.875,143.9375,2.11125,1.75,2.75,7.375,11.875,1.375,2.375,35.4071875,0.5493125,81.1875
Rb2Cd(IBr)2,3.35,Rb2 Cd1 I2 Br2,42.57142857142857,65.71428571428571,360.63428571428574,11.714285714285714,157.42857142857142,2.0814285714285714,1.7142857142857142,2.857142857142857,7.142857142857143,11.714285714285714,0.5714285714285714,0.8571428571428571,49.41857142857143,0.7197142857142858,129.71428571428572
Rb2Cd(PSe3)2,2.58,Rb2 Cd1 P2 Se6,32.36363636363637,70.72727272727273,437.9763636363636,12.727272727272727,138.0,2.091818181818182,1.8181818181818181,2.727272727272727,6.363636363636363,10.909090909090908,1.6363636363636365,1.8181818181818181,36.509134199127274,0.7312727272727273,67.27272727272727
Rb2Cd3(B4O7)4,4.76,Rb2 Cd3 B16 O28,10.653061224489797,77.6734693877551,847.1424489795919,14.16326530612245,82.93877551020408,2.7687755102040814,1.9591836734693877,2.6122448979591835,0.6122448979591837,5.183673469387755,2.7755102040816326,2.816326530612245,12.441428571428572,0.4976326530612245,82.28571428571429
Rb2Cd3S4,2.92,Rb2 Cd3 S4,31.333333333333332,63.333333333333336,440.11333333333334,11.333333333333334,143.55555555555554,1.8922222222222222,1.7777777777777777,1.7777777777777777,3.3333333333333335,6.888888888888889,0.8888888888888888,1.1111111111111112,38.11972222222222,0.9786666666666667,146.66666666666666
Rb2Cd3Se4,2.37,Rb2 Cd3 Se4,39.333333333333336,63.77777777777778,487.06444444444446,11.333333333333334,150.22222222222223,1.8788888888888888,1.7777777777777777,1.7777777777777777,7.777777777777778,11.333333333333334,0.8888888888888888,1.1111111111111112,38.17888888888889,0.35511111111111116,121.77777777777777
Rb2Cd3Te4,2.3,Rb2 Cd3 Te4,47.333333333333336,64.22222222222223,588.691111111111,11.333333333333334,158.22222222222223,1.6788888888888889,1.7777777777777777,1.7777777777777777,7.777777777777778,11.333333333333334,0.8888888888888888,1.1111111111111112,42.109259259244446,0.20622222222222222,183.11111111111111
Rb2Cu2Sb2S5,1.6,Rb2 Cu2 Sb2 S5,28.545454545454547,67.81818181818181,644.529090909091,12.181818181818182,137.0,2.0399999999999996,1.6363636363636365,2.3636363636363638,3.6363636363636362,7.636363636363637,1.4545454545454546,1.8181818181818181,35.9672159090909,1.000909090909091,144.54545454545453
Rb2Cu2SnS4,2.08,Rb2 Cu2 Sn1 S4,27.333333333333332,63.111111111111114,599.8866666666667,11.333333333333334,140.33333333333334,1.9688888888888887,1.5555555555555556,2.0,3.3333333333333335,6.888888888888889,1.3333333333333333,1.7777777777777777,37.77972222222222,0.9786666666666667,147.66666666666666
Rb2GeB4O9,5.54,Rb2 Ge1 B4 O9,12.375,72.375,732.595,13.25,93.125,2.6731249999999998,1.875,2.625,0.625,5.125,2.625,2.75,19.6928125,0.4049375,90.9375
Rb2Hg(PSe3)2,2.32,Rb2 Hg1 P2 Se6,35.27272727272727,70.81818181818181,405.2581818181818,12.727272727272727,136.9090909090909,2.12,1.8181818181818181,2.727272727272727,6.363636363636363,12.181818181818182,1.6363636363636365,1.8181818181818181,37.03118749066363,0.7312727272727273,64.72727272727273
Rb2Hg3(GeS4)2,2.8,Rb2 Hg3 Ge2 S8,33.733333333333334,72.2,457.1706666666667,12.933333333333334,127.73333333333333,2.1533333333333333,1.8666666666666667,2.4,3.3333333333333335,10.4,1.6,1.7333333333333334,33.96418390804667,1.2254666666666665,131.06666666666666
Rb2Mo3Se3O16,3.1,Rb2 Mo3 Se3 O16,17.916666666666668,75.70833333333333,486.32166666666666,13.5,96.58333333333333,2.950416666666667,1.7916666666666667,3.1666666666666665,1.875,6.833333333333333,1.5833333333333333,2.4166666666666665,18.831458333333334,0.099875,57.458333333333336
Rb2NbCuS4,2.64,Rb2 Nb1 Cu1 S4,26.0,58.875,785.7662500000001,10.25,144.5,1.9325,1.5,2.0,1.75,5.25,1.0,2.25,39.2303125,1.101,149.0
Rb2NbCuSe4,2.19,Rb2 Nb1 Cu1 Se4,35.0,59.375,838.5862500000001,10.25,152.0,1.9175,1.5,2.0,6.75,10.25,1.0,2.25,39.296875,0.3995,121.0
Rb2PS5,2.3,Rb2 P1 S5,21.125,66.375,360.50250000000005,12.125,134.0,2.09125,1.75,2.875,0.0,4.625,1.625,1.875,41.6187016369,1.579375,101.25
Rb2Pt(IO3)6,2.4,Rb2 Pt1 I6 O18,22.74074074074074,81.96296296296296,221.25259259259258,14.88888888888889,96.22222222222223,3.02962962962963,1.8888888888888888,3.7777777777777777,2.5555555555555554,8.74074074074074,1.5555555555555556,1.7037037037037037,22.905370370370374,0.236,47.51851851851852
Rb2Sn2Hg3S8,2.48,Rb2 Sn2 Hg3 S8,36.13333333333333,72.33333333333333,362.99466666666666,12.933333333333334,130.26666666666668,2.146666666666667,1.8666666666666667,2.4,3.3333333333333335,10.4,1.6,1.7333333333333334,35.33485057471333,1.1743999999999999,119.86666666666666
Rb2Sn3(SbS5)2,2.33,Rb2 Sn3 Sb2 S10,28.58823529411765,76.3529411764706,460.66588235294114,13.764705882352942,128.52941176470588,2.2011764705882353,1.8823529411764706,3.0588235294117645,2.9411764705882355,7.882352941176471,2.235294117647059,2.3529411764705883,35.428749999999994,1.2952941176470587,112.52941176470588
Rb2Te,4.5,Rb2 Te1,42.0,32.666666666666664,449.1933333333333,6.0,192.66666666666666,1.2466666666666668,1.3333333333333333,1.3333333333333333,3.3333333333333335,6.0,0.6666666666666666,1.3333333333333333,72.06944444443333,0.15466666666666667,203.33333333333334
Rb2TeBr6,2.14,Rb2 Te1 Br6,37.333333333333336,74.22222222222223,326.93111111111114,13.333333333333334,144.22222222222223,2.388888888888889,1.7777777777777777,3.7777777777777777,7.777777777777778,13.333333333333334,0.8888888888888888,1.1111111111111112,43.67648148147778,1.022888888888889,110.44444444444444
Rb2TeI6,1.4,Rb2 Te1 I6,49.333333333333336,74.88888888888889,407.6311111111111,13.333333333333334,156.88888888888889,2.188888888888889,1.7777777777777777,3.7777777777777777,7.777777777777778,13.333333333333334,0.8888888888888888,1.1111111111111112,52.69981481481111,0.7595555555555555,110.44444444444444
Rb2Ti(AgS2)2,2.33,Rb2 Ti1 Ag2 S4,28.22222222222222,59.22222222222222,732.1355555555557,10.222222222222221,145.55555555555554,1.9288888888888889,1.5555555555555556,1.7777777777777777,2.4444444444444446,5.777777777777778,0.8888888888888888,2.2222222222222223,37.10472222222222,0.9786666666666667,153.55555555555554
Rb2Ti(CuS2)2,2.19,Rb2 Ti1 Cu2 S4,24.22222222222222,59.0,759.4333333333333,10.222222222222221,142.66666666666666,1.9222222222222223,1.5555555555555556,1.7777777777777777,2.4444444444444446,5.777777777777778,0.8888888888888888,2.2222222222222223,35.93583333333333,0.9786666666666667,153.55555555555554
Rb2VAgS4,1.83,Rb2 V1 Ag1 S4,26.0,58.875,699.5362500000001,10.25,144.75,1.94,1.625,2.0,1.625,5.25,1.0,2.25,39.24156249999999,1.101,149.0
Rb2VCuS4,1.85,Rb2 V1 Cu1 S4,23.75,58.75,714.8912500000001,10.25,143.125,1.93625,1.625,2.0,1.625,5.25,1.0,2.25,38.584062499999995,1.101,149.0
Rb2Zn3(SeO3)4,4.9,Rb2 Zn3 Se4 O12,18.857142857142858,76.9047619047619,254.12190476190474,14.0,98.95238095238095,2.7652380952380953,1.9047619047619047,3.0476190476190474,3.3333333333333335,8.285714285714286,1.5238095238095237,1.619047619047619,20.77452380952381,0.1521904761904762,59.04761904761905
Rb3Ag9(PS4)4,2.6,Rb3 Ag9 P4 S16,26.5625,73.03125,610.4596875,13.0625,127.28125,2.1834375,1.625,2.375,2.8125,6.8125,1.375,1.75,28.8127641369,1.304125,120.0
Rb3Al3Ge7S20,3.1,Rb3 Al3 Ge7 S20,21.03030303030303,77.0909090909091,605.599696969697,13.93939393939394,120.0909090909091,2.210909090909091,1.9090909090909092,2.9393939393939394,2.121212121212121,6.96969696969697,2.515151515151515,2.606060606060606,30.253939393939394,1.4157878787878786,131.42424242424244
Rb3Al3Ge7Se20,2.4,Rb3 Al3 Ge7 Se20,31.939393939393938,77.6969696969697,669.6239393939394,13.93939393939394,129.1818181818182,2.192727272727273,1.9090909090909092,2.9393939393939394,8.181818181818182,13.030303030303031,2.515151515151515,2.606060606060606,30.334621212121217,0.5654848484848485,97.48484848484848
Rb3Bi2Br9,2.62,Rb3 Bi2 Br9,42.285714285714285,74.21428571428571,315.59857142857146,13.285714285714286,145.42857142857142,2.367142857142857,1.7857142857142858,3.642857142857143,7.857142857142857,15.285714285714286,1.0714285714285714,1.2857142857142858,43.09910714285714,0.9366428571428572,91.92857142857143
Rb3Cd(BO2)5,2.34,Rb3 Cd1 B5 O10,13.894736842105264,69.05263157894737,727.3473684210527,12.631578947368421,99.15789473684211,2.5657894736842106,1.8421052631578947,2.3684210526315788,0.5263157894736842,4.7368421052631575,2.3684210526315788,2.526315789473684,22.03026315789474,0.4010526315789474,96.36842105263158
Rb3Li4(BO2)7,6.53,Rb3 Li4 B7 O14,9.642857142857142,62.07142857142857,712.6907142857143,11.5,95.85714285714286,2.4578571428571427,1.75,2.25,0.0,4.0,2.25,2.5,18.436369047614285,0.38099999999999995,104.75
Rb3Na(MoO4)2,4.84,Rb3 Na1 Mo2 O8,19.285714285714285,57.857142857142854,538.475,10.285714285714286,118.71428571428571,2.516428571428572,1.5714285714285714,2.2857142857142856,0.7142857142857143,4.571428571428571,1.1428571428571428,2.2857142857142856,28.973630952378578,0.0,105.0
Rb3Nb2AsSe11,1.5,Rb3 Nb2 As1 Se11,35.294117647058826,68.76470588235294,762.4341176470589,12.0,142.76470588235293,2.1111764705882354,1.7058823529411764,2.764705882352941,7.529411764705882,12.0,1.4705882352941178,2.4705882352941178,36.22485294117647,0.517,86.17647058823529
Rb3Sb,1.0,Rb3 Sb1,40.5,24.25,460.28999999999996,4.5,199.75,1.1275,1.25,0.75,2.5,4.5,0.75,1.5,75.931875,0.0,213.25
Rb3Sb2Br9,2.48,Rb3 Sb2 Br9,37.714285714285715,74.07142857142857,366.9385714285714,13.285714285714286,144.14285714285714,2.3714285714285714,1.7857142857142858,3.642857142857143,7.857142857142857,13.285714285714286,1.0714285714285714,1.2857142857142858,42.900535714285716,0.9366428571428572,113.92857142857143
Rb3Sb2I9,1.94,Rb3 Sb2 I9,49.285714285714285,74.71428571428571,444.75642857142856,13.285714285714286,156.35714285714286,2.1785714285714284,1.7857142857142858,3.642857142857143,7.857142857142857,13.285714285714286,1.0714285714285714,1.2857142857142858,51.60160714285714,0.6827142857142857,113.92857142857143