composition,gap expt,composition_pmg,MagpieData mean Number,MagpieData mean MendeleevNumber,MagpieData mean MeltingT,MagpieData mean Column,MagpieData mean CovalentRadius,MagpieData mean Electronegativity,MagpieData mean NsValence,MagpieData mean NpValence,MagpieData mean NdValence,MagpieData mean NValence,MagpieData mean NpUnfilled,MagpieData mean NUnfilled,MagpieData mean GSvolume_pa,MagpieData mean GSbandgap,MagpieData mean SpaceGroupNumber
Ga1.8Cu0.2Se2.8,1.86,Ga1.8 Cu0.2 Se2.8,32.66666666666667,82.33333333333334,458.3316666666667,14.666666666666668,121.25,2.2454166666666664,1.9583333333333335,2.7083333333333335,10.0,14.666666666666668,3.0416666666666665,3.083333333333333,22.6528125,0.46608333333333335,41.541666666666664
Ga1.95Cu0.05S2.95,2.64,Ga1.95 Cu0.05 S2.95,22.040404040404038,82.24242424242425,364.489898989899,14.767676767676766,111.96969696969697,2.26979797979798,1.9898989898989898,2.7777777777777777,4.040404040404041,8.808080808080808,3.1616161616161618,3.1717171717171717,22.908465909090907,1.3123030303030303,69.20202020202021
Ga1.95Cu0.05Se2.95,1.96,Ga1.95 Cu0.05 Se2.95,32.76767676767677,82.83838383838382,427.44707070707074,14.767676767676766,120.9090909090909,2.251919191919192,1.9898989898989898,2.7777777777777777,10.0,14.767676767676766,3.1616161616161618,3.1717171717171717,22.987803030303034,0.4761717171717172,35.82828282828283
Ga1.99Cu0.01Se2.99,1.99,Ga1.99 Cu0.01 Se2.99,32.7935871743487,82.96793587174348,419.5247695390782,14.793587174348698,120.82164328657313,2.2535871743486973,1.997995991983968,2.7955911823647295,10.0,14.793587174348698,3.192384769539078,3.19438877755511,23.073732464929865,0.4787595190380762,34.362725450901806
Ga1.9Cu0.1S2.9,2.6,Ga1.9 Cu0.1 S2.9,22.08163265306122,82.08163265306122,375.0102040816326,14.73469387755102,112.14285714285714,2.2675510204081633,1.9795918367346936,2.7551020408163263,4.081632653061225,8.816326530612244,3.122448979591837,3.1428571428571423,22.799630102040815,1.3032244897959182,70.83673469387755
Ga1As0.01P0.99,2.23,Ga1 As0.01 P0.99,23.09,78.505,313.9685,14.0,114.56,1.9999500000000001,2.0,2.0,5.05,9.05,4.0,4.0,20.711892857124,0.804375,33.82
Ga1As0.2P0.8,2.2,Ga1 As0.2 P0.8,24.8,78.6,387.37500000000006,14.0,115.70000000000002,1.999,2.0,2.0,6.0,10.0,4.0,4.0,20.67434523808,0.65,49.4
Ga1As0.3P0.7,2.16,Ga1 As0.3 P0.7,25.7,78.65,426.01000000000005,14.0,116.29999999999998,1.9985,2.0,1.9999999999999998,6.5,10.5,4.0,4.0,20.65458333332,0.56875,57.6
Ga1As0.4P0.6,2.1,Ga1 As0.4 P0.6,26.6,78.69999999999999,464.64500000000004,14.0,116.9,1.9980000000000002,2.0,2.0,7.0,11.0,4.0,4.0,20.634821428560002,0.4875,65.8
Ga1As0.5P0.5,2.0,Ga1 As0.5 P0.5,27.5,78.75,503.28000000000003,14.0,117.5,1.9975,2.0,2.0,7.5,11.5,4.0,4.0,20.6150595238,0.40625,74.0
Ga1As0.6P0.4,1.91,Ga1 As0.6 P0.4,28.4,78.80000000000001,541.9150000000001,14.0,118.1,1.997,2.0,2.0,8.0,12.0,4.0,4.0,20.59529761904,0.325,82.2
Ga1As0.7P0.3,1.8,Ga1 As0.7 P0.3,29.299999999999997,78.85000000000001,580.5500000000001,14.0,118.7,1.9965000000000002,2.0,1.9999999999999998,8.5,12.5,4.0,4.0,20.57553571428,0.24375,90.39999999999999
Ga1As0.8P0.2,1.62,Ga1 As0.8 P0.2,30.200000000000003,78.89999999999999,619.1850000000001,14.0,119.3,1.9960000000000002,2.0,2.0,9.0,13.0,4.0,4.0,20.55577380952,0.1625,98.60000000000001
Ga1As0.99P0.01,1.37,Ga1 As0.99 P0.01,31.91,78.995,692.5915,14.0,120.44,1.9950500000000002,2.0,1.9999999999999998,9.95,13.950000000000001,4.0,4.0,20.518226190476,0.008125,114.18
Ga1As0.9P0.1,1.5,Ga1 As0.9 P0.1,31.1,78.95000000000002,657.82,14.0,119.9,1.9955,2.0,2.0,9.5,13.5,4.0,4.0,20.53601190476,0.08125,106.8
Ga1Sb0.01As0.99,0.7,Ga1 Sb0.01 As0.99,32.09,79.005,695.5238999999999,14.0,120.6,1.9943500000000003,2.0,2.0,10.0,14.0,4.0,4.0,20.563175,0.0,115.0
Ga1Sb0.14As0.86,0.66,Ga1 Sb0.14 As0.86,33.26,79.07,683.4196,14.0,121.9,1.9859,2.0,2.0,10.0,14.0,4.0,4.0,21.1732,0.0,115.0
Ga1Sb0.25As0.75,0.65,Ga1 Sb0.25 As0.75,34.25,79.125,673.1775,14.0,123.0,1.97875,2.0,2.0,10.0,14.0,4.0,4.0,21.689375000000002,0.0,115.0
Ga1Sb0.35As0.65,0.68,Ga1 Sb0.35 As0.65,35.15,79.175,663.8665,14.0,124.0,1.97225,2.0,2.0,10.0,14.0,4.0,4.0,22.158625,0.0,115.0
Ga1Sb0.3As0.7,0.67,Ga1 Sb0.3 As0.7,34.699999999999996,79.15,668.5219999999999,14.0,123.5,1.9754999999999998,2.0,1.9999999999999998,10.0,14.0,4.0,4.0,21.924,0.0,115.0
Ga1Sb0.85As0.15,1.1,Ga1 Sb0.85 As0.15,39.65,79.425,617.3115,14.0,129.0,1.9397499999999999,2.0,2.0,10.0,14.0,4.0,4.0,24.504875,0.0,115.0
Ga1Sb0.8As0.2,1.02,Ga1 Sb0.8 As0.2,39.2,79.4,621.967,14.0,128.5,1.943,2.0,2.0,10.0,14.0,4.0,4.0,24.270250000000004,0.0,115.0
Ga1Sb0.95As0.05,1.28,Ga1 Sb0.95 As0.05,40.55,79.475,608.0005,14.0,130.0,1.93325,2.0,1.9999999999999998,10.0,14.0,4.0,4.0,24.974125,0.0,115.0
Ga1Sb0.99As0.01,1.37,Ga1 Sb0.99 As0.01,40.910000000000004,79.495,604.2761,14.0,130.4,1.9306499999999998,2.0,1.9999999999999998,10.0,14.0,4.0,4.0,25.161825,0.0,115.0
Ga2(TeO3)3,4.14,Ga2 Te3 O9,20.714285714285715,85.78571428571429,233.35714285714286,15.571428571428571,89.42857142857143,2.9200000000000004,2.0,3.5714285714285716,3.5714285714285716,9.142857142857142,2.4285714285714284,2.4285714285714284,15.99642857142143,0.09942857142857144,49.42857142857143
Ga2Cu1S3.5,2.42,Ga2 Cu1 S3.5,22.615384615384617,80.0,511.20769230769235,14.307692307692308,114.38461538461539,2.2384615384615385,1.8461538461538463,2.4615384615384617,4.615384615384615,8.923076923076923,2.6153846153846154,2.769230769230769,21.390625,1.1856923076923076,92.0
Ga2CuSe4,0.63,Ga2 Cu1 Se4,32.42857142857143,81.14285714285714,562.7985714285714,14.428571428571429,122.28571428571429,2.2457142857142856,1.8571428571428572,2.5714285714285716,10.0,14.428571428571429,2.5714285714285716,2.7142857142857144,21.780714285714286,0.4565714285714286,58.42857142857143
Ga2GePbSe6,1.96,Ga2 Ge1 Pb1 Se6,38.0,84.2,538.183,15.0,123.0,2.3259999999999996,2.0,3.0,10.0,16.4,3.0,3.0,24.435000000000002,0.5177,66.2
Ga2GeTe3,0.84,Ga2 Ge1 Te3,41.666666666666664,82.83333333333333,664.2,14.666666666666666,129.66666666666666,1.9883333333333333,2.0,2.6666666666666665,10.0,14.666666666666666,3.3333333333333335,3.3333333333333335,27.50166666665,0.29583333333333334,134.83333333333334
Ga2HgS4,2.79,Ga2 Hg1 S4,29.428571428571427,81.57142857142857,341.94,14.571428571428571,113.71428571428571,2.277142857142857,2.0,2.5714285714285716,4.285714285714286,10.857142857142858,2.5714285714285716,2.5714285714285716,23.728583743842858,1.2582857142857142,82.0
Ga2HgSe4,1.95,Ga2 Hg1 Se4,39.714285714285715,82.14285714285714,402.3057142857143,14.571428571428571,122.28571428571429,2.2600000000000002,2.0,2.5714285714285716,10.0,16.571428571428573,2.5714285714285716,2.5714285714285716,23.80465517241429,0.4565714285714286,50.0
Ga2PbS4,2.38,Ga2 Pb1 S4,29.714285714285715,83.0,394.26714285714286,14.857142857142858,115.71428571428571,2.3242857142857143,2.0,2.857142857142857,4.285714285714286,11.142857142857142,3.142857142857143,3.142857142857143,24.138928571428572,1.2582857142857142,90.42857142857143
Ga2PbSe4,1.83,Ga2 Pb1 Se4,40.0,83.57142857142857,454.6328571428572,14.857142857142858,124.28571428571429,2.307142857142857,2.0,2.857142857142857,10.0,16.857142857142858,3.142857142857143,3.142857142857143,24.215,0.4565714285714286,58.42857142857143
Ga2S3,2.8,Ga2 S3,22.0,82.4,354.18,14.8,111.8,2.272,2.0,2.8,4.0,8.8,3.2,3.2,23.015125,1.3212,67.6
Ga2Se2O7,4.61,Ga2 Se2 O7,16.90909090909091,85.0,179.76545454545456,15.454545454545455,86.0,2.9818181818181815,2.0,3.4545454545454546,3.6363636363636362,9.090909090909092,2.5454545454545454,2.5454545454545454,13.935454545454547,0.14527272727272728,21.818181818181817
Ga2Si(AgS3)2,2.35,Ga2 Si1 Ag2 S6,24.181818181818183,80.36363636363636,644.8036363636364,14.363636363636363,115.9090909090909,2.26,1.8181818181818181,2.5454545454545454,3.6363636363636362,8.0,2.3636363636363638,2.5454545454545454,22.32147727272727,1.2713636363636363,111.36363636363636
Ga2SiPbSe6,2.17,Ga2 Si1 Pb1 Se6,36.2,84.1,585.743,15.0,122.1,2.315,2.0,3.0,9.0,15.4,3.0,3.0,24.178500000000003,0.5567,66.4
Ga2SnGeS6,2.04,Ga2 Sn1 Ge1 S6,24.0,83.5,465.246,15.0,113.3,2.307,2.0,3.0,4.0,9.0,3.0,3.0,24.872625,1.3595,91.4
Ga3CuTe5,1.09,Ga3 Cu1 Te5,42.44444444444444,81.77777777777777,653.311111111111,14.444444444444445,132.0,1.9811111111111108,1.8888888888888888,2.5555555555555554,10.0,14.444444444444445,2.7777777777777777,2.888888888888889,26.82879629627778,0.25777777777777783,130.77777777777777
Ga3SiAg3Se8,2.3,Ga3 Si1 Ag3 Se8,34.666666666666664,80.46666666666667,683.5013333333334,14.266666666666667,124.8,2.2346666666666666,1.8,2.466666666666667,9.333333333333334,13.6,2.3333333333333335,2.533333333333333,22.22416666666667,0.4776666666666667,80.4
Ga4Cu2Te7,1.08,Ga4 Cu2 Te7,42.0,81.07692307692308,691.2153846153846,14.307692307692308,132.15384615384616,1.9800000000000002,1.8461538461538463,2.4615384615384617,10.0,14.307692307692308,2.6153846153846154,2.769230769230769,26.22410256408461,0.24984615384615386,136.15384615384616
Ga4PbS7,3.08,Ga4 Pb1 S7,26.5,82.75,377.5641666666667,14.833333333333334,114.08333333333333,2.3025,2.0,2.8333333333333335,4.166666666666667,10.166666666666666,3.1666666666666665,3.1666666666666665,23.67067708333333,1.2845,80.91666666666667
Ga4SnS7,3.1,Ga4 Sn1 S7,23.833333333333332,82.66666666666667,369.6033333333333,14.833333333333334,113.5,2.271666666666667,2.0,2.8333333333333335,4.166666666666667,9.0,3.1666666666666665,3.1666666666666665,24.101927083333333,1.2845,73.91666666666667
Ga4SnSe7,2.55,Ga4 Sn1 Se7,34.333333333333336,83.25,431.2266666666667,14.833333333333334,122.25,2.2541666666666664,2.0,2.8333333333333335,10.0,14.833333333333334,3.1666666666666665,3.1666666666666665,24.17958333333333,0.46608333333333335,41.25
Ga5Ge(PbS3)4,2.35,Ga5 Ge1 Pb4 S12,32.13636363636363,83.13636363636364,444.9413636363636,14.863636363636363,117.0,2.333636363636364,2.0,2.8636363636363638,4.545454545454546,11.954545454545455,3.1363636363636362,3.1363636363636362,24.50795454545454,1.2185,103.86363636363636
Ga5Ge(PbSe3)4,1.91,Ga5 Ge1 Pb4 Se12,41.95454545454545,83.68181818181819,502.5631818181818,14.863636363636363,125.18181818181819,2.3172727272727274,2.0,2.8636363636363638,10.0,17.40909090909091,3.1363636363636362,3.1363636363636362,24.580568181818183,0.45322727272727276,73.31818181818181
GaAgGe3Se8,2.17,Ga1 Ag1 Ge3 Se8,34.30769230769231,83.6923076923077,701.8492307692309,14.923076923076923,122.07692307692308,2.3207692307692307,1.9230769230769231,3.0,10.0,14.923076923076923,2.5384615384615383,2.6153846153846154,23.966346153846153,0.5800769230769232,82.76923076923077
GaAgGe5Se12,2.14,Ga1 Ag1 Ge5 Se12,34.0,84.3157894736842,711.7284210526316,15.052631578947368,121.42105263157895,2.336315789473684,1.9473684210526316,3.1052631578947367,10.0,15.052631578947368,2.5789473684210527,2.6315789473684212,24.276447368421053,0.605421052631579,83.26315789473684
GaAgGeS4,3.0,Ga1 Ag1 Ge1 S4,24.857142857142858,81.42857142857143,614.6685714285715,14.571428571428571,115.28571428571429,2.295714285714286,1.8571428571428572,2.7142857142857144,4.285714285714286,8.857142857142858,2.4285714285714284,2.5714285714285716,23.048571428571424,1.313,113.42857142857143
GaAgO2,2.2,Ga1 Ag1 O2,23.5,78.25,411.86,14.0,99.75,2.6550000000000002,1.75,2.25,5.0,9.0,2.25,2.5,13.349375,0.0,78.25
GaAgTe2,1.1,Ga1 Ag1 Te2,45.5,79.75,745.79,14.0,135.75,1.985,1.75,2.25,10.0,14.0,2.25,2.5,26.17854166665,0.232,148.25
GaBi,0.1,Ga1 Bi1,57.0,80.0,423.655,14.0,135.0,1.915,2.0,2.0,10.0,21.0,4.0,4.0,25.903750000000002,0.0,38.0
GaBi25O39,2.99,Ga1 Bi25 O39,37.2,86.41538461538461,246.92476923076924,15.569230769230769,98.4,2.8687692307692307,2.0,3.5692307692307694,4.0,14.953846153846154,2.4307692307692306,2.4307692307692306,18.426192307692308,0.0,12.8
GaCuGeSe4,1.38,Ga1 Cu1 Ge1 Se4,32.57142857142857,81.85714285714286,692.5828571428572,14.571428571428571,122.0,2.274285714285714,1.8571428571428572,2.7142857142857144,10.0,14.571428571428571,2.4285714285714284,2.5714285714285716,22.373214285714287,0.5112857142857143,81.42857142857143
GaCuO2,1.47,Ga1 Cu1 O2,19.0,78.0,442.57,14.0,96.5,2.6475,1.75,2.25,5.0,9.0,2.25,2.5,12.034375,0.0,78.25
GaGeTe,1.1,Ga1 Ge1 Te1,38.333333333333336,81.0,745.6566666666668,14.333333333333334,126.66666666666667,1.9733333333333334,2.0,2.3333333333333335,10.0,14.333333333333334,3.6666666666666665,3.6666666666666665,25.54194444443333,0.2823333333333333,147.0
GaHSeO4,5.51,Ga1 H1 Se1 O4,14.0,86.14285714285714,147.16000000000003,13.428571428571429,76.71428571428571,2.902857142857143,1.8571428571428572,3.0,2.857142857142857,7.714285714285714,2.142857142857143,2.2857142857142856,12.544642857142858,1.236,45.714285714285715
GaP,2.74,Ga1 P1,23.0,78.5,310.105,14.0,114.5,2.0,2.0,2.0,5.0,9.0,4.0,4.0,20.7138690476,0.8125,33.0
GaSiAgSe4,2.63,Ga1 Si1 Ag1 Se4,32.57142857142857,81.85714285714286,742.9771428571429,14.571428571428571,122.57142857142857,2.262857142857143,1.8571428571428572,2.7142857142857144,8.571428571428571,13.142857142857142,2.4285714285714284,2.5714285714285716,22.758214285714285,0.5670000000000001,81.71428571428571
GaTc,1.42,Ga1 Tc1,37.0,63.5,1366.455,10.0,134.5,1.855,2.0,0.5,7.5,10.0,2.5,5.0,16.57125,0.0,129.0
Gd(CuS)3,1.62,Gd1 Cu3 S3,28.428571428571427,69.0,974.9128571428571,12.0,129.57142857142858,2.0914285714285716,1.5714285714285714,1.7142857142857142,4.428571428571429,8.714285714285714,0.8571428571428571,3.5714285714285716,20.374374999999997,0.9437142857142857,154.14285714285714
Gd(CuSe)3,0.14,Gd1 Cu3 Se3,36.142857142857146,69.42857142857143,1020.1871428571428,12.0,136.0,2.0785714285714283,1.5714285714285714,1.7142857142857142,8.714285714285714,13.0,0.8571428571428571,3.5714285714285716,20.43142857142857,0.34242857142857147,130.14285714285714
Gd(CuTe)3,0.52,Gd1 Cu3 Te3,43.857142857142854,69.85714285714286,1118.1842857142856,12.0,143.71428571428572,1.8857142857142857,1.5714285714285714,1.7142857142857142,8.714285714285714,13.0,0.8571428571428571,3.5714285714285716,24.221428571414283,0.19885714285714287,189.28571428571428
Gd(InS2)3,1.13,Gd1 In3 S6,30.7,78.0,520.5409999999999,13.8,125.2,2.202,2.0,2.7,3.1,8.5,2.7,4.3,25.955125,1.3212,103.1
Gd1.05Sc0.95Se3,1.2,Gd1.05 Sc0.95 Se3,37.83,61.160000000000004,974.1200000000001,10.8,145.45999999999998,2.0404,2.0,2.4,6.4,12.27,1.2,6.2700000000000005,26.507150000000003,0.47940000000000005,86.0
Gd1.47Mn2.04In0.49S5,1.75,Gd1.47 Mn2.04 In0.49 S5,27.676666666666662,69.16888888888889,842.506388888889,11.673333333333334,129.58444444444447,2.077577777777778,2.0,2.2766666666666664,1.8411111111111111,7.26111111111111,1.3833333333333333,5.13,23.258883429119553,1.2233333333333334,127.33
Gd1.87Lu2.13Se6,1.56,Gd1.87 Lu2.13 Se6,47.491,67.18199999999999,1005.35,10.8,148.483,2.0249099999999998,2.0,2.4,6.4,15.091,1.2,6.109,27.693595,0.47940000000000005,86.0
Gd1Mn1.95In1.05S5,1.66,Gd1 Mn1.95 In1.05 S5,27.133333333333333,71.90555555555555,771.2319444444444,12.255555555555555,126.79444444444445,2.1101666666666667,2.0,2.338888888888889,2.361111111111111,7.477777777777778,1.6944444444444444,4.555555555555555,22.98979645593944,1.2233333333333334,123.67777777777776
Gd2Mn4S7,1.44,Gd2 Mn4 S7,26.153846153846153,67.53846153846153,920.5015384615385,11.23076923076923,129.46153846153845,2.050769230769231,2.0,2.1538461538461537,1.6923076923076923,6.923076923076923,1.0769230769230769,5.076923076923077,22.042959217507693,1.1856923076923076,134.30769230769232
Gd2O3,5.3,Gd2 O3,30.4,63.0,667.28,10.8,118.0,2.544,2.0,2.4,0.4,7.6,1.2,7.6,18.282999999999998,0.0,84.8
Gd2S3,2.55,Gd2 S3,35.2,63.6,867.4159999999999,10.8,141.4,2.028,2.0,2.4,0.4,7.6,1.2,7.6,28.292125,1.3212,119.6
Gd2Se3,2.2,Gd2 Se3,46.0,64.2,930.8,10.8,150.4,2.01,2.0,2.4,6.4,13.6,1.2,7.6,28.372000000000003,0.47940000000000005,86.0
Gd2Te3,0.74,Gd2 Te3,56.8,64.8,1067.9959999999999,10.8,161.2,1.7400000000000002,2.0,2.4,6.4,13.6,1.2,7.6,33.67799999998,0.27840000000000004,168.8
Gd2ZrS5,1.88,Gd2 Zr1 S5,31.0,67.25,905.225,11.25,136.5,2.07875,2.0,2.5,0.5,6.75,1.25,6.25,27.028671874999997,1.37625,116.5
Gd3.04Sc0.96S6,1.5,Gd3.04 Sc0.96 S6,31.072000000000003,62.064,889.3040000000001,10.8,138.904,2.04336,2.0,2.4,0.4,6.928,1.2,6.928,27.349884999999993,1.3212,119.6
Gd3Al0.74Si0.7S7,2.34,Gd3 Al0.74 Si0.7 S7,28.27097902097902,70.42132867132867,817.1492832167831,12.274475524475521,130.26573426573424,2.1137587412587413,2.0,2.6346153846153846,0.2622377622377622,6.732517482517482,1.7919580419580416,5.9877622377622375,26.500115821678317,1.3946765734265734,122.15034965034964
Gd4GaSbS9,2.41,Gd4 Ga1 Sb1 S9,32.13333333333333,70.6,736.3953333333334,12.266666666666667,132.66666666666666,2.1253333333333333,2.0,2.6666666666666665,1.6,8.133333333333333,1.7333333333333334,6.0,27.379958333333335,1.3212,109.06666666666666
Gd6Ge2.5S14,2.2,Gd6 Ge2.5 S14,30.57777777777778,70.73333333333333,799.1795555555556,12.311111111111112,130.93333333333334,2.1486666666666667,2.0,2.7111111111111112,1.3777777777777778,7.955555555555556,1.6888888888888889,5.955555555555556,27.14794444444444,1.4126888888888889,120.28888888888889
GdAs,0.63,Gd1 As1,48.5,55.5,1338.0,9.0,157.5,1.69,2.0,1.5,5.5,12.5,1.5,9.5,27.112499999999997,0.0,180.0
GdB(SbO4)2,3.48,Gd1 B1 Sb2 O8,19.583333333333332,80.41666666666667,514.9966666666666,14.5,90.5,2.905,2.0,3.25,1.75,7.583333333333333,2.25,3.5833333333333335,14.598541666666668,0.127,65.66666666666667
GdB6,3.6,Gd1 B6,13.428571428571429,65.57142857142857,2239.1428571428573,11.571428571428571,100.0,1.92,2.0,0.8571428571428571,0.14285714285714285,4.0,4.285714285714286,6.571428571428571,10.726428571428572,1.3062857142857143,170.0
GdB66,1.27,Gd1 B66,5.880597014925373,71.32835820895522,2336.626865671642,12.850746268656716,85.67164179104478,2.0274626865671643,2.0,0.9850746268656716,0.014925373134328358,3.1044776119402986,4.925373134328358,5.164179104477612,7.543805970149255,1.5012537313432837,166.4179104477612
GdCd4B3O10,3.8,Gd1 Cd4 B3 O10,19.5,77.38888888888889,641.9377777777778,13.88888888888889,93.55555555555556,2.6933333333333334,2.0,2.388888888888889,2.2777777777777777,7.055555555555555,1.9444444444444444,2.8333333333333335,12.36652777777778,0.254,88.22222222222223
GdH2NO5,4.84,Gd1 H2 N1 O5,12.555555555555555,80.88888888888889,216.78555555555556,11.11111111111111,73.22222222222223,2.871111111111111,1.7777777777777777,2.5555555555555554,0.1111111111111111,5.222222222222222,1.4444444444444444,3.4444444444444446,11.730416666666667,2.4603333333333333,92.88888888888889
GdN,1.54,Gd1 N1,35.5,54.5,824.525,9.0,133.5,2.12,2.0,1.5,0.5,7.5,1.5,9.5,23.409374999999997,3.2185,194.0
GdScS3,2.1,Gd1 Sc1 S3,26.6,60.4,913.016,10.8,136.2,2.06,2.0,2.4,0.4,6.2,1.2,6.2,26.329124999999998,1.3212,119.6
GdTe,1.3,Gd1 Te1,58.0,58.5,1154.33,9.5,167.0,1.65,2.0,2.0,5.5,13.0,1.0,9.0,33.40666666665,0.232,173.0
Ge(Bi3O5)4,3.25,Ge1 Bi12 O20,36.0,86.39393939393939,267.8848484848485,15.575757575757576,97.45454545454545,2.8803030303030304,2.0,3.5757575757575757,3.9393939393939394,14.606060606060606,2.4242424242424243,2.4242424242424243,18.197121212121214,0.011606060606060606,18.454545454545453
Ge(SeO3)2,5.27,Ge1 Se2 O6,16.444444444444443,86.55555555555556,280.9111111111111,15.777777777777779,84.0,3.0833333333333335,2.0,3.7777777777777777,3.3333333333333335,9.11111111111111,2.2222222222222223,2.2222222222222223,14.386111111111111,0.22011111111111112,36.111111111111114
Ge0.01Pb0.99Se1,0.27,Ge0.01 Pb0.99 Se1,57.74999999999999,84.99000000000001,550.35895,15.0,132.87,2.4383999999999997,2.0,3.0,10.0,21.93,3.0,3.0,26.989475,0.401415,119.5
Ge0.01Te0.01Pb0.99Se0.99,0.23,Ge0.01 Te0.01 Pb0.99 Se0.99,57.839999999999996,84.995,551.50225,15.0,132.96,2.43615,2.0,3.0,10.0,21.93,3.0,3.0,27.0336916666665,0.39974,120.19
Ge0.01Te0.99Pb0.99S0.01,0.32,Ge0.01 Te0.99 Pb0.99 S0.01,66.57,85.47999999999999,663.0174499999999,15.0,141.705,2.2158,2.0,3.0,9.95,21.880000000000003,3.0,3.0,31.3662593749835,0.24260500000000002,188.09
Ge0.01Te1Pb0.99,0.32,Ge0.01 Te1 Pb0.99,66.75,85.49000000000001,664.68895,15.0,141.87,2.2134,2.0,3.0,10.0,21.93,3.0,3.0,31.411141666649996,0.233915,188.5
Ge0.02Te0.98Pb0.98S0.02,0.34,Ge0.02 Te0.98 Pb0.98 S0.02,66.14,85.46,664.3999,15.0,141.41000000000003,2.2165999999999997,2.0,3.0,9.9,21.759999999999998,3.0,3.0,31.295852083316994,0.25321,187.68