composition,gap expt,composition_pmg,MagpieData mean Number,MagpieData mean MendeleevNumber,MagpieData mean MeltingT,MagpieData mean Column,MagpieData mean CovalentRadius,MagpieData mean Electronegativity,MagpieData mean NsValence,MagpieData mean NpValence,MagpieData mean NdValence,MagpieData mean NValence,MagpieData mean NpUnfilled,MagpieData mean NUnfilled,MagpieData mean GSvolume_pa,MagpieData mean GSbandgap,MagpieData mean SpaceGroupNumber
Ba3La3(Cu3O7)2,1.8,Ba3 La3 Cu6 O14,24.03846153846154,64.15384615384616,595.8776923076923,11.73076923076923,114.6923076923077,2.5203846153846152,1.7692307692307692,2.1538461538461537,2.423076923076923,6.346153846153846,1.0769230769230769,2.3461538461538463,19.05201923076923,0.0,107.1923076923077
Ba3MgTa2O9,4.28,Ba3 Mg1 Ta2 O9,26.533333333333335,64.93333333333334,733.08,10.8,114.66666666666667,2.529333333333333,2.0,2.4,0.4,6.666666666666667,1.2,2.1333333333333333,22.123,0.0,96.46666666666667
Ba3Nb2Se9,1.3,Ba3 Nb2 Se9,39.714285714285715,65.85714285714286,924.7142857142857,11.428571428571429,146.64285714285714,2.0585714285714287,1.8571428571428572,2.5714285714285716,7.0,11.428571428571429,1.2857142857142858,2.2857142857142856,32.886428571428574,0.5136428571428572,90.78571428571429
Ba3P3ClO10,6.89,Ba3 P3 Cl1 O10,18.235294117647058,72.94117647058823,274.79411764705884,13.411764705882353,101.6470588235294,2.7529411764705882,2.0,3.176470588235294,0.0,5.176470588235294,1.7647058823529411,1.7647058823529411,22.001659663858824,0.4334117647058824,51.588235294117645
Ba3Sb2S7,2.4,Ba3 Sb2 S7,31.833333333333332,67.75,627.1733333333333,12.333333333333334,138.16666666666666,2.069166666666667,2.0,2.8333333333333335,1.6666666666666667,6.5,1.6666666666666667,1.6666666666666667,36.19984375,1.2845,125.75
Ba3Sn(SbSe4)2,0.97,Ba3 Sn1 Sb2 Se8,42.285714285714285,70.64285714285714,661.76,12.714285714285714,144.42857142857142,2.0807142857142855,2.0,2.857142857142857,7.857142857142857,12.714285714285714,1.8571428571428572,1.8571428571428572,35.323928571428574,0.4565714285714286,90.85714285714286
Ba3Sn0.87Bi2.13Se8,0.79,Ba3 Sn0.87 Bi2.13 Se8,47.16357142857142,70.84142857142857,610.7851142857144,12.723571428571429,145.79785714285714,2.076985714285714,2.0,2.866428571428571,7.857142857142857,14.853571428571428,1.8478571428571426,1.8478571428571426,35.51938928571429,0.4565714285714286,67.6592857142857
Ba3Ta2Se9,1.6,Ba3 Ta2 Se9,44.285714285714285,66.0,1001.8571428571429,11.428571428571429,147.5,2.044285714285714,2.0,2.5714285714285716,6.857142857142857,13.428571428571429,1.2857142857142858,2.2857142857142856,32.877857142857145,0.5136428571428572,90.78571428571429
Ba3Ta2ZnO9,4.32,Ba3 Ta2 Zn1 O9,27.733333333333334,65.0,717.7253333333334,11.466666666666667,113.4,2.552,2.0,2.4,1.0666666666666667,7.333333333333333,1.2,2.1333333333333333,21.52766666666667,0.0,96.46666666666667
Ba3Ta5NO14,2.8,Ba3 Ta5 N1 O14,28.347826086956523,68.1304347826087,881.75,11.73913043478261,108.26086956521739,2.6682608695652172,2.0,2.5652173913043477,0.6521739130434783,8.26086956521739,1.3478260869565217,2.869565217391304,18.417771739130433,0.2798695652173913,95.3913043478261
Ba3Tb2(PS4)4,3.37,Ba3 Tb2 P4 S16,24.56,73.0,549.6383999999999,13.12,125.64,2.2052,2.0,3.04,0.0,5.76,1.76,2.16,30.284571428567997,1.6692799999999999,88.12
Ba3ThSe7,1.96,Ba3 Th1 Se7,45.09090909090909,60.54545454545455,771.0,11.0,153.72727272727272,1.9836363636363634,2.0,2.5454545454545454,6.545454545454546,11.090909090909092,1.2727272727272727,2.0,36.78,0.5084545454545455,91.81818181818181
Ba3V2(SeO4)4,2.87,Ba3 V2 Se4 O16,19.12,74.68,408.75199999999995,13.44,99.48,2.8468,2.0,3.2,1.84,7.04,1.6,2.16,18.646,0.12784,55.72
Ba4B11O20F,7.1,Ba4 B11 O20 F1,12.444444444444445,73.91666666666667,860.4861111111111,13.555555555555555,87.80555555555556,2.743888888888889,2.0,2.6666666666666665,0.0,4.666666666666667,2.6666666666666665,2.6666666666666665,14.58513888888889,0.5203888888888888,83.25
Ba4Ga4GeSe12,2.18,Ba4 Ga4 Ge1 Se12,37.523809523809526,70.42857142857143,588.1447619047619,12.666666666666666,138.47619047619048,2.067142857142857,2.0,2.5714285714285716,8.095238095238095,12.666666666666666,2.2857142857142856,2.2857142857142856,31.61119047619048,0.4748095238095238,74.52380952380952
Ba4Ga4SnSe12,2.16,Ba4 Ga4 Sn1 Se12,38.38095238095238,70.47619047619048,554.5104761904762,12.666666666666666,139.38095238095238,2.064761904761905,2.0,2.5714285714285716,8.095238095238095,12.666666666666666,2.2857142857142856,2.2857142857142856,32.10071428571429,0.45657142857142863,70.52380952380952
Ba4Ga5AgS12,2.52,Ba4 Ga5 Ag1 S12,28.09090909090909,69.4090909090909,518.6272727272727,12.545454545454545,130.6818181818182,2.0681818181818183,1.9545454545454546,2.409090909090909,2.727272727272727,7.090909090909091,2.227272727272727,2.272727272727273,30.65545454545455,1.201090909090909,104.5909090909091
Ba4Ga5CuS12,2.82,Ba4 Ga5 Cu1 S12,27.272727272727273,69.36363636363636,524.210909090909,12.545454545454545,130.0909090909091,2.066818181818182,1.9545454545454546,2.409090909090909,2.727272727272727,7.090909090909091,2.227272727272727,2.272727272727273,30.41636363636364,1.201090909090909,104.5909090909091
Ba4Ga5CuSe12,1.45,Ba4 Ga5 Cu1 Se12,37.09090909090909,69.9090909090909,581.8327272727273,12.545454545454545,138.27272727272728,2.0504545454545453,1.9545454545454546,2.409090909090909,8.181818181818182,12.545454545454545,2.227272727272727,2.272727272727273,30.488977272727276,0.4358181818181819,74.04545454545455
Ba4Ga5Si18,0.31,Ba4 Ga5 Si18,23.37037037037037,67.03703703703704,1328.9092592592594,12.037037037037036,128.44444444444446,1.7337037037037035,2.0,1.5185185185185186,1.8518518518518519,5.37037037037037,3.5925925925925926,3.5925925925925926,26.53953703703704,0.5153333333333333,197.11111111111111
Ba4Ge3S9Cl2,2.91,Ba4 Ge3 S9 Cl2,27.666666666666668,69.61111111111111,637.3688888888889,12.666666666666666,131.61111111111111,2.173888888888889,2.0,2.888888888888889,1.6666666666666667,6.555555555555555,1.7777777777777777,1.7777777777777777,33.58065972222222,1.4418333333333333,130.5
Ba4Ge3Se9Cl2,1.89,Ba4 Ge3 Se9 Cl2,36.666666666666664,70.11111111111111,690.188888888889,12.666666666666666,139.11111111111111,2.158888888888889,2.0,2.888888888888889,6.666666666666667,11.555555555555555,1.7777777777777777,1.7777777777777777,33.64722222222222,0.7403333333333334,102.5
Ba4InAgSe6,2.41,Ba4 In1 Ag1 Se6,43.666666666666664,59.166666666666664,719.0566666666667,10.666666666666666,155.58333333333334,1.8808333333333334,1.9166666666666667,2.0833333333333335,6.666666666666667,10.666666666666666,1.4166666666666667,1.5,37.53916666666667,0.3995,113.66666666666667
Ba4InCuSe6,2.23,Ba4 In1 Cu1 Se6,42.166666666666664,59.083333333333336,729.2933333333334,10.666666666666666,154.5,1.8783333333333332,1.9166666666666667,2.0833333333333335,6.666666666666667,10.666666666666666,1.4166666666666667,1.5,37.100833333333334,0.3995,113.66666666666667
Ba4LiGa5Se12,2.65,Ba4 Li1 Ga5 Se12,35.90909090909091,67.04545454545455,540.7381818181818,12.090909090909092,138.0909090909091,2.0086363636363633,1.9545454545454546,2.409090909090909,7.7272727272727275,12.090909090909092,2.227272727272727,2.272727272727273,30.740037878786367,0.4358181818181819,74.22727272727273
Ba4Sb3S8Cl,2.09,Ba4 Sb3 S8 Cl1,32.625,68.0625,624.3637500000001,12.375,138.6875,2.0943750000000003,2.0,2.875,1.875,6.75,1.625,1.625,36.23953125,1.2568124999999999,127.375
Ba4Si3Se9Cl2,1.76,Ba4 Si3 Se9 Cl2,33.666666666666664,69.94444444444444,769.4555555555556,12.666666666666666,137.61111111111111,2.1405555555555558,2.0,2.888888888888889,5.0,9.88888888888889,1.7777777777777777,1.7777777777777777,33.219722222222224,0.8053333333333335,102.83333333333333
Ba5(Ga2Se5)2,2.2,Ba5 Ga4 Se10,39.1578947368421,64.78947368421052,586.9284210526315,11.68421052631579,145.42105263157896,1.9573684210526314,2.0,2.3157894736842106,7.368421052631579,11.68421052631579,2.1052631578947367,2.1052631578947367,34.34631578947369,0.4205263157894737,81.10526315789474
Ba5(GaSe4)2,2.51,Ba5 Ga2 Se8,40.93333333333333,60.333333333333336,637.188,10.933333333333334,151.93333333333334,1.898,2.0,2.2666666666666666,6.666666666666667,10.933333333333334,1.7333333333333334,1.7333333333333334,37.535000000000004,0.42613333333333336,92.33333333333333
Ba5Cd(Ga2Se5)3,2.6,Ba5 Cd1 Ga6 Se15,37.925925925925924,70.14814814814815,548.9511111111111,12.592592592592593,138.92592592592592,2.0462962962962963,2.0,2.4444444444444446,8.148148148148149,12.592592592592593,2.2222222222222223,2.2222222222222223,31.088518518518523,0.44388888888888894,71.5925925925926
Ba5Ga6GeP12,1.39,Ba5 Ga6 Ge1 P12,28.25,65.16666666666667,493.1858333333334,11.75,133.79166666666666,1.8166666666666667,2.0,1.8333333333333333,2.9166666666666665,6.75,2.9166666666666665,2.9166666666666665,30.205952380933336,0.8284583333333333,74.08333333333333
Ba5Ga6SnP12,1.21,Ba5 Ga6 Sn1 P12,29.0,65.20833333333333,463.7558333333333,11.75,134.58333333333334,1.8145833333333332,2.0,1.8333333333333333,2.9166666666666665,6.75,2.9166666666666665,2.9166666666666665,30.634285714266667,0.8125,70.58333333333333
Ba5In4Te4S7,2.13,Ba5 In4 Te4 S7,39.8,66.05,616.408,11.9,146.5,1.9015,2.0,2.4,4.0,8.4,2.1,2.1,36.72757291666,0.8634999999999999,139.95
Ba5V3O12F,3.85,Ba5 V3 O12 F1,21.61904761904762,62.857142857142854,583.8142857142857,11.142857142857142,113.47619047619048,2.6,2.0,2.5238095238095237,0.42857142857142855,4.9523809523809526,1.1904761904761905,2.1904761904761907,22.664166666666667,0.09380952380952381,94.80952380952381
Ba6Al4B14O33,3.44,Ba6 Al4 B14 O33,12.666666666666666,74.12280701754386,779.1978947368422,13.578947368421053,89.96491228070175,2.6992982456140355,2.0,2.6315789473684212,0.0,4.631578947368421,2.736842105263158,2.736842105263158,14.883157894736843,0.37431578947368416,87.6140350877193
Ba6Ga2SnSe11,1.99,Ba6 Ga2 Sn1 Se11,41.1,63.05,627.245,11.4,149.65,1.9485,2.0,2.4,7.0,11.4,1.8,1.8,36.882999999999996,0.43945,89.85
Ba6Sn6Se13,1.52,Ba6 Sn6 Se13,43.12,67.64,618.0992,12.16,147.36,2.01,2.0,2.56,7.6,12.16,2.0,2.0,36.7284,0.41548,96.08
Ba7(SnS3)5,2.29,Ba7 Sn5 S15,32.666666666666664,66.03703703703704,568.5481481481481,12.0,139.8148148148148,2.027037037037037,2.0,2.5925925925925926,1.8518518518518519,6.444444444444445,1.8518518518518519,1.8518518518518519,36.97622685185185,1.2233333333333334,124.37037037037037
Ba7B3O9F5,4.94,Ba7 B3 O9 F5,21.833333333333332,63.625,616.8625000000001,11.75,109.83333333333333,2.63375,2.0,2.6666666666666665,0.0,4.666666666666667,1.5833333333333333,1.5833333333333333,24.880416666666665,0.6009166666666667,95.16666666666667
Ba7Ga5AgS15,2.6,Ba7 Ga5 Ag1 S15,29.785714285714285,64.92857142857143,556.2457142857144,11.785714285714286,136.96428571428572,1.9967857142857144,1.9642857142857142,2.3214285714285716,2.142857142857143,6.428571428571429,1.9642857142857142,2.0,33.662522321428575,1.1796428571428572,114.21428571428571
Ba8Al10B12O41,3.1,Ba8 Al10 B12 O41,13.605633802816902,73.70422535211267,672.6408450704225,13.492957746478874,93.5774647887324,2.65830985915493,2.0,2.619718309859155,0.0,4.619718309859155,2.704225352112676,2.704225352112676,15.956267605633803,0.2575774647887324,92.47887323943662
Ba8Hg4Se7S5,1.98,Ba8 Hg4 Se7 S5,45.25,59.125,597.3783333333334,10.666666666666666,150.54166666666666,1.91125,2.0,2.0,4.583333333333333,10.916666666666666,1.0,1.0,38.33519665948334,0.6917916666666667,122.66666666666667
Ba8Sn4S15,2.31,Ba8 Sn4 S15,32.888888888888886,63.407407407407405,586.8785185185186,11.555555555555555,142.62962962962962,1.9874074074074075,2.0,2.5185185185185186,1.4814814814814814,6.0,1.7037037037037037,1.7037037037037037,38.09863425925926,1.2233333333333334,127.62962962962963
BaAgSbS3,2.2,Ba1 Ag1 Sb1 S3,33.666666666666664,70.5,717.2983333333333,12.666666666666666,135.66666666666666,2.1016666666666666,1.8333333333333333,2.5,3.3333333333333335,7.666666666666667,1.5,1.6666666666666667,31.4734375,1.101,138.33333333333334
BaAl4Se7,3.4,Ba1 Al4 Se7,28.833333333333332,77.0,682.6566666666666,13.833333333333334,128.25,2.098333333333333,2.0,2.6666666666666665,5.833333333333333,10.5,2.8333333333333335,2.8333333333333335,25.912499999999998,0.46608333333333335,102.25
BaAu(IO3)5,2.32,Ba1 Au1 I5 O15,23.636363636363637,84.54545454545455,231.52636363636364,15.363636363636363,92.54545454545455,3.105909090909091,1.9545454545454546,3.8636363636363638,2.727272727272727,9.181818181818182,1.5909090909090908,1.6363636363636365,19.633636363636366,0.2413636363636364,43.36363636363637
BaB6,2.64,Ba1 B6,12.285714285714286,63.0,2155.4285714285716,11.428571428571429,102.71428571428571,1.875714285714286,2.0,0.8571428571428571,0.0,2.857142857142857,4.285714285714286,4.285714285714286,15.232142857142858,1.3062857142857143,175.0
BaBClF4,6.89,Ba1 B1 Cl1 F4,16.285714285714285,78.14285714285714,533.3714285714285,14.285714285714286,89.85714285714286,3.144285714285714,2.0,3.7142857142857144,0.0,5.714285714285714,1.4285714285714286,1.4285714285714286,19.155714285714286,1.6995714285714283,74.14285714285714
BaBSbS4,2.34,Ba1 B1 Sb1 S4,25.142857142857142,74.0,829.3171428571428,13.428571428571429,122.57142857142857,2.185714285714286,2.0,2.857142857142857,1.4285714285714286,6.285714285714286,2.2857142857142856,2.2857142857142856,29.352857142857143,1.4760000000000002,120.14285714285714
BaBiClO2,3.71,Ba1 Bi1 Cl1 O2,34.4,72.6,365.12,13.2,119.4,2.59,2.0,3.2,2.0,10.0,1.6,1.6,27.8495,0.4986,65.8
BaCaB2O5,5.6,Ba1 Ca1 B2 O5,14.0,66.11111111111111,787.2222222222222,12.222222222222221,98.77777777777777,2.5744444444444445,2.0,2.4444444444444446,0.0,4.444444444444445,2.2222222222222223,2.2222222222222223,17.914444444444445,0.33866666666666667,94.0
BaCdSnS4,2.3,Ba1 Cd1 Sn1 S4,31.142857142857142,73.0,521.82,13.142857142857142,131.14285714285714,2.1228571428571428,2.0,2.5714285714285716,2.857142857142857,7.428571428571429,1.7142857142857142,1.7142857142857142,31.359642857142855,1.2582857142857142,120.57142857142857
BaCu2SnSe4,0.48,Ba1 Cu2 Sn1 Se4,37.5,71.625,774.5775,12.75,137.25,2.1062499999999997,1.75,2.25,8.75,12.75,1.5,1.75,27.836875,0.3995,109.5
BaCuSbS3,2.0,Ba1 Cu1 Sb1 S3,30.666666666666668,70.33333333333333,737.7716666666666,12.666666666666666,133.5,2.0966666666666667,1.8333333333333333,2.5,3.3333333333333335,7.666666666666667,1.5,1.6666666666666667,30.596770833333334,1.101,138.33333333333334
BaCuSbSe3,1.6,Ba1 Cu1 Sb1 Se3,39.666666666666664,70.83333333333333,790.5916666666667,12.666666666666666,141.0,2.0816666666666666,1.8333333333333333,2.5,8.333333333333334,12.666666666666666,1.5,1.6666666666666667,30.663333333333338,0.3995,110.33333333333333
BaCuTeF,2.3,Ba1 Cu1 Te1 F1,36.5,64.0,783.4825,11.5,135.5,2.2175000000000002,1.75,2.25,5.0,9.0,0.75,1.0,29.782708333324997,0.6085,155.25
BaGa2GeS6,3.23,Ba1 Ga2 Ge1 S6,24.6,76.4,514.738,13.8,120.9,2.2,2.0,2.8,3.0,7.8,2.6,2.6,27.903125,1.3595,100.2
BaGa2SiS6,3.75,Ba1 Ga2 Si1 S6,22.8,76.3,562.298,13.8,120.0,2.189,2.0,2.8,2.0,6.8,2.6,2.6,27.646625,1.3984999999999999,100.4
BaGa2SiSe6,2.88,Ba1 Ga2 Si1 Se6,33.6,76.9,625.682,13.8,129.0,2.1710000000000003,2.0,2.8,8.0,12.8,2.6,2.6,27.726499999999998,0.5567,66.8
BaGa4S7,3.54,Ba1 Ga4 S7,24.333333333333332,76.75,410.84666666666664,13.833333333333334,119.83333333333333,2.1825000000000006,2.0,2.6666666666666665,3.3333333333333335,8.0,2.8333333333333335,2.8333333333333335,26.627343749999998,1.2845,81.25
BaGa4Se7,2.64,Ba1 Ga4 Se7,34.833333333333336,77.33333333333333,472.47,13.833333333333334,128.58333333333334,2.1649999999999996,2.0,2.6666666666666665,9.166666666666666,13.833333333333334,2.8333333333333335,2.8333333333333335,26.705000000000002,0.46608333333333335,48.583333333333336
BaGe2,1.0,Ba1 Ge2,40.0,55.666666666666664,1140.9333333333334,10.0,151.66666666666666,1.6366666666666665,2.0,1.3333333333333333,6.666666666666667,10.0,2.6666666666666665,2.6666666666666665,36.53333333333333,0.25533333333333336,226.33333333333334
BaGe4(IrS3)2,1.54,Ba1 Ge4 Ir2 S6,33.38461538461539,74.84615384615384,1050.2892307692307,13.23076923076923,123.61538461538461,2.2161538461538464,2.0,2.4615384615384617,4.153846153846154,10.76923076923077,2.1538461538461537,2.6153846153846154,26.057788461538465,1.134153846153846,153.76923076923077
BaGe4(IrSe3)2,1.33,Ba1 Ge4 Ir2 Se6,41.69230769230769,75.3076923076923,1099.0461538461539,13.23076923076923,130.53846153846155,2.2023076923076923,2.0,2.4615384615384617,8.76923076923077,15.384615384615385,2.1538461538461537,2.6153846153846154,26.119230769230775,0.48661538461538467,127.92307692307692
BaGe4(RhSe3)2,1.09,Ba1 Ge4 Rh2 Se6,36.76923076923077,75.15384615384616,1021.8153846153847,13.23076923076923,130.69230769230768,2.2146153846153847,1.8461538461538463,2.4615384615384617,8.923076923076923,13.23076923076923,2.1538461538461537,2.6153846153846154,26.031538461538464,0.48661538461538467,127.92307692307692
BaHgS2,1.93,Ba1 Hg1 S2,42.0,64.0,502.76,11.5,139.25,2.0125,2.0,2.0,2.5,10.0,1.0,1.0,35.100334051725,1.101,133.75
BaHgSe2,1.56,Ba1 Hg1 Se2,51.0,64.5,555.5799999999999,11.5,146.75,1.9975,2.0,2.0,7.5,15.0,1.0,1.0,35.166896551725,0.3995,105.75
BaIn2(P2O7)2,3.97,Ba1 In2 P4 O14,15.523809523809524,81.38095238095238,185.5190476190476,14.857142857142858,88.14285714285714,2.9223809523809523,2.0,3.3333333333333335,0.9523809523809523,6.285714285714286,2.380952380952381,2.380952380952381,15.707664399085713,0.30952380952380953,32.523809523809526
BaLa2In2S7,1.87,Ba1 La2 In2 S7,31.666666666666668,66.75,580.335,12.166666666666666,137.33333333333334,2.0591666666666666,2.0,2.5,1.8333333333333333,6.333333333333333,2.0,3.5,30.53442708333333,1.2845,115.41666666666667
BaLa2In2Se7,1.66,Ba1 La2 In2 Se7,42.166666666666664,67.33333333333333,641.9583333333334,12.166666666666666,146.08333333333334,2.0416666666666665,2.0,2.5,7.666666666666667,12.166666666666666,2.0,3.5,30.612083333333334,0.46608333333333335,82.75
BaLa2Te5O14,3.81,Ba1 La2 Te5 O14,24.636363636363637,77.4090909090909,353.02272727272725,14.181818181818182,101.95454545454545,2.8068181818181817,2.0,3.4545454545454546,2.3636363636363638,7.818181818181818,1.7272727272727273,2.5454545454545454,19.939621212113636,0.10545454545454547,70.22727272727273
BaNa2GeS4,3.7,Ba1 Na2 Ge1 S4,21.75,55.5,563.3225,10.25,135.875,1.885,1.75,2.25,1.25,5.25,1.5,1.75,31.028645833325,1.1488749999999999,149.0
BaNa2GeSe4,2.25,Ba1 Na2 Ge1 Se4,30.75,56.0,616.1425,10.25,143.375,1.8699999999999999,1.75,2.25,6.25,10.25,1.5,1.75,31.095208333325,0.447375,121.0
BaNa2SnS4,3.27,Ba1 Na2 Sn1 S4,24.0,55.625,475.0325,10.25,138.25,1.8787500000000001,1.75,2.25,1.25,5.25,1.5,1.75,32.313645833325,1.101,138.5
BaNa2SnSe4,2.46,Ba1 Na2 Sn1 Se4,33.0,56.125,527.8525,10.25,145.75,1.86375,1.75,2.25,6.25,10.25,1.5,1.75,32.380208333325,0.3995,110.5
BaNaB5O9,4.78,Ba1 Na1 B5 O9,10.25,72.125,850.254375,13.25,87.1875,2.6862500000000002,1.9375,2.5625,0.0,4.5,2.6875,2.75,13.16505208333125,0.47625,87.25
BaO,4.8,Ba1 O1,32.0,48.0,527.4,9.0,140.5,2.165,2.0,2.0,0.0,4.0,1.0,1.0,36.347500000000004,0.0,120.5
BaPd(IO3)4,1.97,Ba1 Pd1 I4 O12,22.77777777777778,83.27777777777777,279.61388888888894,15.11111111111111,94.55555555555556,3.0561111111111114,1.8888888888888888,3.7777777777777777,2.7777777777777777,8.444444444444445,1.5555555555555556,1.5555555555555556,19.962222222222223,0.23600000000000002,47.44444444444444
BaPdSe6,2.15,Ba1 Pd1 Se6,38.25,75.625,724.00625,13.5,134.25,2.29875,1.75,3.0,8.75,13.5,1.5,1.5,29.19,0.5992500000000001,67.25
BaPrO3,2.0,Ba1 Pr1 O3,27.8,57.4,473.68,10.6,123.2,2.468,2.0,2.4,0.0,5.0,1.2,3.4,25.316,0.0,91.8
BaReH9,3.44,Ba1 Re1 H9,12.727272727272727,81.0,416.8263636363636,1.6363636363636365,58.63636363636363,2.0536363636363637,1.1818181818181819,0.0,0.45454545454545453,2.909090909090909,0.0,1.2727272727272727,12.525454545454545,6.425181818181818,197.1818181818182
BaS,3.88,Ba1 S1,36.0,48.5,694.1800000000001,9.0,160.0,1.735,2.0,2.0,0.0,4.0,1.0,1.0,44.6884375,1.101,149.5
BaSi2,1.3,Ba1 Si2,28.0,55.0,1458.0,10.0,145.66666666666666,1.5633333333333332,2.0,1.3333333333333333,0.0,3.3333333333333335,2.6666666666666665,2.6666666666666665,34.82333333333333,0.5153333333333333,227.66666666666666
BaSn2S5,2.35,Ba1 Sn2 S5,29.5,76.125,493.995,13.75,127.25,2.21375,2.0,3.0,2.5,7.5,2.25,2.25,32.386796875,1.37625,107.625