composition,gap expt,composition_pmg,MagpieData mean Number,MagpieData mean MendeleevNumber,MagpieData mean MeltingT,MagpieData mean Column,MagpieData mean CovalentRadius,MagpieData mean Electronegativity,MagpieData mean NsValence,MagpieData mean NpValence,MagpieData mean NdValence,MagpieData mean NValence,MagpieData mean NpUnfilled,MagpieData mean NUnfilled,MagpieData mean GSvolume_pa,MagpieData mean GSbandgap,MagpieData mean SpaceGroupNumber
La3CuGeSe7,2.0,La3 Cu1 Ge1 Se7,39.166666666666664,67.08333333333333,800.5141666666667,12.166666666666666,142.75,2.0883333333333334,1.9166666666666667,2.5,7.75,12.166666666666666,1.5,3.8333333333333335,27.183958333333333,0.498,94.16666666666667
La3Ga1Ge0.5S7,2.54,La3 Ga1 Ge0.5 S7,28.695652173913043,66.82608695652173,626.6199999999999,12.26086956521739,133.7391304347826,2.1021739130434787,2.0,2.608695652173913,1.565217391304348,6.173913043478261,1.826086956521739,4.173913043478261,27.961793478260866,1.357,108.56521739130434
La3GaCuSe7,1.36,La3 Ga1 Cu1 Se7,39.083333333333336,66.66666666666667,724.8066666666667,12.083333333333334,142.91666666666666,2.0716666666666668,1.9166666666666667,2.4166666666666665,7.75,12.083333333333334,1.5833333333333333,3.9166666666666665,26.838333333333335,0.46608333333333335,80.75
La3In1Ge0.5S7,2.61,La3 In1 Ge0.5 S7,30.26086956521739,66.91304347826087,637.6495652173912,12.26086956521739,135.47826086956522,2.0995652173913046,2.0,2.608695652173913,1.565217391304348,6.173913043478261,1.826086956521739,4.173913043478261,28.43157608695652,1.357,115.08695652173913
La3LuSe6,1.26,La3 Lu1 Se6,44.6,61.4,847.9,10.8,152.8,1.9869999999999997,2.0,2.4,6.4,12.2,1.2,4.8,29.507749999999998,0.47940000000000005,86.0
La3Mg0.5Sn1S14,1.71,La3 Mg0.5 Sn1 S14,24.37837837837838,74.86486486486487,539.601081081081,13.405405405405405,124.35135135135135,2.272162162162162,2.0,3.135135135135135,0.7027027027027027,5.837837837837838,1.7297297297297298,3.189189189189189,27.915608108108103,1.6663783783783783,97.29729729729729
La3Mo4O16F,3.7,La3 Mo4 O16 F1,19.833333333333332,71.83333333333333,670.5541666666667,12.75,97.91666666666667,2.956666666666667,1.8333333333333333,2.875,0.9583333333333334,5.666666666666667,1.375,3.5,13.701666666666666,0.08208333333333333,71.04166666666667
La3Si1Sb0.33S7,1.92,La3 Si1 Sb0.33 S7,27.699029126213595,67.171226831421,731.0474315975288,12.352162400706089,133.52780229479256,2.112665489849956,2.0,2.735216240070609,0.5560458958517212,5.29126213592233,1.6760812003530452,4.059135039717564,28.425015445719332,1.4286849073256842,119.48631950573697
La3Si1Sb0.33Se7,1.75,La3 Si1 Sb0.33 Se7,38.819947043248014,67.78905560458958,796.3148631950573,12.352162400706089,142.79523389232125,2.0941306266548985,2.0,2.735216240070609,6.73433362753751,11.46954986760812,1.6760812003530452,4.059135039717564,28.507263901147397,0.5618711385701677,84.88790820829655
La3Te4,0.43,La3 Te4,54.142857142857146,57.0,924.2342857142856,10.428571428571429,167.57142857142858,1.6714285714285715,2.0,2.2857142857142856,6.142857142857143,10.428571428571429,1.1428571428571428,5.0,35.67797619045714,0.2651428571428572,170.0
La4Cd4In2S13,2.27,La4 Cd4 In2 S13,31.565217391304348,70.69565217391305,567.6982608695653,12.782608695652174,132.7391304347826,2.0982608695652174,2.0,2.347826086956522,2.782608695652174,7.130434782608695,1.565217391304348,3.130434782608696,26.492146739130437,1.2446086956521738,119.1304347826087
La4Fe(SbS5)2,1.0,La4 Fe1 Sb2 S10,30.352941176470587,68.05882352941177,722.0094117647059,12.352941176470589,134.58823529411765,2.125294117647059,2.0,2.7058823529411766,1.7647058823529411,6.470588235294118,1.5294117647058822,3.8823529411764706,28.194632352941174,1.2952941176470587,119.82352941176471
La4Fe(SbSe5)2,0.85,La4 Fe1 Sb2 Se10,40.94117647058823,68.6470588235294,784.1505882352941,12.352941176470589,143.41176470588235,2.107647058823529,2.0,2.7058823529411766,7.647058823529412,12.352941176470589,1.5294117647058822,3.8823529411764706,28.272941176470592,0.47000000000000003,86.88235294117646
La4InSbS9,2.07,La4 In1 Sb1 S9,31.466666666666665,66.93333333333334,640.0513333333333,12.266666666666667,136.93333333333334,2.0966666666666667,2.0,2.6666666666666665,1.6,6.266666666666667,1.7333333333333334,4.133333333333334,29.032791666666665,1.3212,114.06666666666666
La4InSbSe9,1.76,La4 In1 Sb1 Se9,42.266666666666666,67.53333333333333,703.4353333333332,12.266666666666667,145.93333333333334,2.0786666666666664,2.0,2.6666666666666665,7.6,12.266666666666667,1.7333333333333334,4.133333333333334,29.11266666666667,0.47940000000000005,80.46666666666667
La5Cu6.33S7O4,2.0,La5 Cu6.33 S7 O4,27.43260188087774,64.22391401701746,783.5828078817734,11.671742051052396,128.50694133452754,2.2098969995521722,1.716524854455889,1.9704433497536948,3.0586654724585762,6.7456336766681595,0.9852216748768474,3.283922973578146,21.114586878638605,0.690282131661442,131.31437527989254
La5In3(S3O)3,2.6,La5 In3 S9 O3,30.0,67.15,545.6945,12.3,130.2,2.2190000000000003,2.0,2.55,1.75,6.3,1.95,4.2,25.833218750000004,0.9908999999999999,102.65
La6Sb4(SO4)3,2.6,La6 Sb4 S3 O12,27.6,69.04,503.832,12.72,116.2,2.5528,2.0,2.88,1.84,6.72,1.68,3.84,21.369825000000002,0.26424,87.28
La8Sb2S15,2.3,La8 Sb2 S15,31.92,63.76,687.0784,11.76,140.36,2.064,2.0,2.64,1.12,5.76,1.44,4.32,29.804125,1.3212000000000002,117.36
LaB6,4.1,La1 B6,12.428571428571429,63.57142857142857,2183.0,11.571428571428571,101.57142857142857,1.9057142857142857,2.0,0.8571428571428571,0.14285714285714285,3.0,4.285714285714286,5.571428571428571,11.418928571428571,1.3062857142857143,170.0
LaBeB3O7,5.65,La1 Be1 B3 O7,11.0,75.41666666666667,848.3833333333333,13.0,84.75,2.7391666666666663,2.0,2.5833333333333335,0.08333333333333333,4.666666666666667,2.4166666666666665,3.1666666666666665,10.836666666666668,0.381,80.83333333333333
LaCuSO,3.1,La1 Cu1 S1 O1,27.5,63.0,748.4825000000001,11.5,127.5,2.255,1.75,2.0,2.75,6.5,1.0,3.5,20.71484375,0.5505,125.25
LaCuSeO,2.83,La1 Cu1 Se1 O1,32.0,63.25,774.8925,11.5,131.25,2.2475,1.75,2.0,5.25,9.0,1.0,3.5,20.748125,0.19975,111.25
LaCuTeO,2.31,La1 Cu1 Te1 O1,36.5,63.5,832.0575,11.5,135.75,2.135,1.75,2.0,5.25,9.0,1.0,3.5,22.958958333325,0.116,145.75
LaF3,6.6,La1 F3,21.0,73.0,338.375,13.5,94.5,3.26,2.0,3.75,0.25,6.0,0.75,3.0,16.505,1.4775,59.75
LaGaO3,4.4,La1 Ga1 O3,22.4,69.6,332.062,12.8,105.4,2.646,2.0,2.6,2.2,6.8,2.2,4.0,16.614,0.0,58.8
LaGaS3,2.5,La1 Ga1 S3,27.2,70.2,532.198,12.8,128.8,2.13,2.0,2.6,2.2,6.8,2.2,4.0,26.623124999999998,1.3212,93.6
LaH2NO5,4.76,La1 H2 N1 O5,11.777777777777779,79.33333333333333,173.11888888888888,11.11111111111111,74.44444444444444,2.86,1.7777777777777777,2.5555555555555554,0.1111111111111111,4.444444444444445,1.4444444444444444,2.6666666666666665,12.269027777777778,2.4603333333333333,92.88888888888889
LaInS2O,2.73,La1 In1 S2 O1,29.2,70.2,490.8540000000001,12.8,125.0,2.296,2.0,2.6,2.2,6.8,2.2,4.0,24.36725,0.8808,97.0
LaMg2H7Pd,1.0,La1 Mg2 H7 Pd1,12.181818181818182,77.72727272727273,451.37454545454545,2.1818181818181817,76.81818181818181,1.9381818181818182,1.1818181818181819,0.0,1.0,2.1818181818181817,0.0,1.4545454545454546,13.03568181818182,4.9973636363636365,196.8181818181818
LaNbN2O,1.7,La1 Nb1 N2 O1,24.0,62.2,824.78,10.8,115.8,2.444,1.8,2.0,1.0,4.8,1.6,4.8,18.744000000000003,2.5748,164.6
LaP,0.54,La1 P1,36.0,48.0,755.15,9.0,157.0,1.645,2.0,1.5,0.5,4.0,1.5,6.0,29.733869047600002,0.8125,98.0
LaSb,0.8,La1 Sb1,54.0,49.0,1048.3899999999999,9.0,173.0,1.575,2.0,1.5,5.5,9.0,1.5,6.0,34.22875,0.0,180.0
LaSi2,0.19,La1 Si2,28.333333333333332,56.333333333333336,1522.3333333333333,10.333333333333334,143.0,1.6333333333333335,2.0,1.3333333333333333,0.3333333333333333,3.6666666666666665,2.6666666666666665,5.666666666666667,25.925833333333333,0.5153333333333333,216.0
LaTaN2O,2.0,La1 Ta1 N2 O1,30.4,62.4,932.7800000000001,10.8,117.0,2.424,2.0,2.0,0.8,7.6,1.6,4.8,18.732000000000003,2.5748,164.6
LaVI5O16,3.58,La1 V1 I5 O16,20.565217391304348,83.95652173913044,269.00217391304346,15.173913043478262,91.78260869565217,3.09,2.0,3.869565217391304,2.347826086956522,8.217391304347826,1.608695652173913,2.3043478260869565,17.854891304347824,0.23086956521739133,40.65217391304348
LaZnAsO,1.5,La1 Zn1 As1 O1,32.0,63.25,757.62,11.5,128.5,2.0925,2.0,1.75,5.25,9.0,1.25,3.5,20.534375,0.0,141.5
Li0.33Ag1Sn0.67O2,2.7,Li0.33 Ag1 Sn0.67 O2,24.372500000000002,73.2325,458.162825,13.1775,103.0925,2.61165,1.6675,2.335,4.175,8.1775,1.67,2.0025,15.57918749999725,0.0,104.75999999999999
Li0.33Ti0.67Ag1O2,2.7,Li0.33 Ti0.67 Ag1 O2,19.6825,67.035,698.6794249999999,11.5025,106.61,2.5412999999999997,1.6675,2.0,2.835,6.5024999999999995,1.0,2.6725000000000003,12.799524999997251,0.0,113.6375
Li0.5Ge1Pb1.75S4,1.95,Li0.5 Ge1 Pb1.75 S4,33.241379310344826,79.06896551724138,557.6210344827587,14.206896551724139,118.55172413793103,2.330689655172414,1.9310344827586208,2.9655172413793105,3.793103448275862,12.068965517241379,2.6206896551724137,2.689655172413793,25.329885057468964,1.2677241379310344,139.75862068965517
Li2B4O7,7.3,Li2 B4 O7,6.3076923076923075,69.15384615384616,821.7676923076923,12.76923076923077,81.07692307692308,2.630769230769231,1.8461538461538463,2.4615384615384617,0.0,4.3076923076923075,2.6153846153846154,2.769230769230769,9.66243589743077,0.46892307692307694,92.76923076923077
Li2CdGe,0.99,Li2 Cd1 Ge1,21.5,37.75,678.25,7.0,130.0,1.415,1.5,0.5,5.0,7.0,1.0,1.5,18.921666666649998,0.09575,219.25
Li2CdGeS4,3.1,Li2 Cd1 Ge1 S4,18.75,62.875,533.3050000000001,11.5,117.5,1.9975,1.75,2.25,2.5,6.5,1.5,1.75,22.354270833324996,1.1488749999999999,144.625
Li2CdSnS4,3.26,Li2 Cd1 Sn1 S4,21.0,63.0,445.015,11.5,119.875,1.99125,1.75,2.25,2.5,6.5,1.5,1.75,23.639270833325,1.101,134.125
Li2FeGeS4,1.42,Li2 Fe1 Ge1 S4,16.0,61.0,685.4025,11.0,116.0,2.015,1.75,2.25,2.0,6.0,1.5,2.25,21.258645833324998,1.1488749999999999,149.0
Li2FeSnS4,1.86,Li2 Fe1 Sn1 S4,18.25,61.125,597.1125,11.0,118.375,2.00875,1.75,2.25,2.0,6.0,1.5,2.25,22.543645833324998,1.101,138.5
Li2Ga(GeSe3)2,2.64,Li2 Ga1 Ge2 Se6,27.727272727272727,69.81818181818181,599.7354545454546,12.636363636363637,121.63636363636364,2.0990909090909087,1.8181818181818181,2.6363636363636362,8.181818181818182,12.636363636363637,2.272727272727273,2.4545454545454546,23.05219696969091,0.5054545454545455,96.0
Li2Ga2GeS6,3.65,Li2 Ga2 Ge1 S6,17.818181818181817,68.81818181818181,459.5236363636364,12.545454545454545,113.63636363636364,2.097272727272727,1.8181818181818181,2.5454545454545454,2.727272727272727,7.090909090909091,2.3636363636363638,2.5454545454545454,22.602537878781817,1.2359090909090908,111.9090909090909
Li2HgGe,0.93,Li2 Hg1 Ge1,29.5,38.0,588.2750000000001,7.0,127.0,1.4925,1.5,0.5,5.0,10.5,1.0,1.5,20.357313218374998,0.09575,212.25
Li2HgGeS4,2.46,Li2 Hg1 Ge1 S4,22.75,63.0,488.31750000000005,11.5,116.0,2.03625,1.75,2.25,2.5,8.25,1.5,1.75,23.072094109187496,1.1488749999999999,141.125
Li2In2GeS6,3.45,Li2 In2 Ge1 S6,21.09090909090909,69.0,482.5854545454546,12.545454545454545,117.27272727272727,2.091818181818182,1.8181818181818181,2.5454545454545454,2.727272727272727,7.090909090909091,2.3636363636363638,2.5454545454545454,23.584810606054546,1.2359090909090908,125.54545454545455
Li2In2GeSe6,2.3,Li2 In2 Ge1 Se6,30.90909090909091,69.54545454545455,540.2072727272728,12.545454545454545,125.45454545454545,2.075454545454545,1.8181818181818181,2.5454545454545454,8.181818181818182,12.545454545454545,2.3636363636363638,2.5454545454545454,23.657424242418184,0.4706363636363637,95.0
Li2In2SiS6,3.61,Li2 In2 Si1 S6,19.454545454545453,68.9090909090909,525.8218181818182,12.545454545454545,116.45454545454545,2.0818181818181816,1.8181818181818181,2.5454545454545454,1.8181818181818181,6.181818181818182,2.3636363636363638,2.5454545454545454,23.351628787872723,1.2713636363636363,125.72727272727273
Li2In2SiSe6,2.54,Li2 In2 Si1 Se6,29.272727272727273,69.45454545454545,583.4436363636364,12.545454545454545,124.63636363636364,2.0654545454545454,1.8181818181818181,2.5454545454545454,7.2727272727272725,11.636363636363637,2.3636363636363638,2.5454545454545454,23.424242424236365,0.5060909090909091,95.18181818181819
Li2MnGeS4,3.06,Li2 Mn1 Ge1 S4,15.875,60.625,648.9025,10.875,116.875,1.98,1.75,2.25,1.875,5.875,1.5,2.375,21.228344109187496,1.1488749999999999,147.5
Li2Mo2Se2O11,3.3,Li2 Mo2 Se2 O11,14.470588235294118,72.76470588235294,487.65764705882356,13.058823529411764,90.0,2.8952941176470586,1.7647058823529411,3.0588235294117645,1.7647058823529411,6.588235294117647,1.5294117647058822,2.3529411764705883,12.738921568623528,0.094,63.294117647058826
Li2PtO3,2.3,Li2 Pt1 O3,18.0,54.333333333333336,518.8633333333333,10.0,98.33333333333333,2.4266666666666667,1.5,2.0,1.5,7.333333333333333,1.0,1.6666666666666667,12.586944444433334,0.0,119.83333333333333
Li2SiHgS4,2.68,Li2 Si1 Hg1 S4,20.5,62.875,547.7675,11.5,114.875,2.0225,1.75,2.25,1.25,7.0,1.5,1.75,22.7514691091875,1.197625,141.375
Li2SnHgS4,2.32,Li2 Sn1 Hg1 S4,25.0,63.125,400.02750000000003,11.5,118.375,2.0300000000000002,1.75,2.25,2.5,8.25,1.5,1.75,24.3570941091875,1.101,130.625
Li2TeMoO6,3.5,Li2 Te1 Mo1 O6,14.8,66.4,485.48400000000004,12.0,94.4,2.686,1.7,2.8,1.5,6.0,1.4,2.2,13.826999999989999,0.046400000000000004,91.1
Li2TeWO6,4.0,Li2 Te1 W1 O6,18.0,66.5,565.384,12.0,95.2,2.7060000000000004,1.8,2.8,1.4,7.4,1.4,2.2,13.86299999999,0.046400000000000004,91.1
Li2ZnGe,1.1,Li2 Zn1 Ge1,17.0,37.5,702.865,7.0,124.5,1.4049999999999998,1.5,0.5,5.0,7.0,1.0,1.5,17.53791666665,0.09575,219.25
Li2ZnGeSe4,1.86,Li2 Zn1 Ge1 Se4,25.5,63.25,598.4325,11.5,122.25,1.9774999999999998,1.75,2.25,7.5,11.5,1.5,1.75,21.728958333325,0.447375,116.625
Li2ZnSnS4,2.87,Li2 Zn1 Sn1 S4,18.75,62.875,457.3225,11.5,117.125,1.98625,1.75,2.25,2.5,6.5,1.5,1.75,22.947395833324997,1.101,134.125
Li2ZnSnSe4,1.87,Li2 Zn1 Sn1 Se4,27.75,63.375,510.1425,11.5,124.625,1.97125,1.75,2.25,7.5,11.5,1.5,1.75,23.013958333325,0.3995,106.125
Li3AlP2,2.75,Li3 Al1 P2,8.666666666666666,40.333333333333336,488.19,7.666666666666667,119.83333333333333,1.4883333333333333,1.5,1.1666666666666667,0.0,2.6666666666666665,1.8333333333333333,2.3333333333333335,18.566746031716665,0.5416666666666666,152.66666666666666
Li3AlTe4O11,3.63,Li3 Al1 Te4 O11,16.736842105263158,73.3157894736842,304.6305263157895,13.473684210526315,93.84210526315789,2.6731578947368417,1.8421052631578947,3.210526315789474,2.1052631578947367,7.157894736842105,1.8421052631578947,2.0,16.077280701742104,0.09768421052631579,86.94736842105263
Li3Bi,0.7,Li3 Bi1,23.0,22.25,476.36749999999995,4.5,133.0,1.24,1.25,0.75,2.5,8.0,0.75,1.5,20.682499999975,0.0,174.75
Li3FeTe4O11,1.98,Li3 Fe1 Te4 O11,17.42105263157895,72.36842105263158,350.81631578947366,13.210526315789474,94.42105263157895,2.684736842105263,1.8421052631578947,3.1578947368421053,2.4210526315789473,7.421052631578948,1.5789473684210527,1.9473684210526316,15.774649122794735,0.09768421052631579,87.15789473684211
Li3GaTe4O11,3.85,Li3 Ga1 Te4 O11,17.68421052631579,73.36842105263158,271.4431578947368,13.473684210526315,93.89473684210526,2.6836842105263155,1.8421052631578947,3.210526315789474,2.6315789473684212,7.684210526315789,1.8421052631578947,2.0,16.202412280689476,0.09768421052631579,78.47368421052632
Li3PS4,3.68,Li3 P1 S4,11.0,54.75,403.97625,10.25,113.875,1.93125,1.625,2.375,0.0,4.0,1.375,1.75,21.937217261887497,1.304125,121.125
Li3ScN2,2.9,Li3 Sc1 N2,7.333333333333333,29.666666666666668,550.1949999999999,6.0,116.0,1.7299999999999998,1.5,1.0,0.16666666666666666,2.6666666666666665,1.0,3.0,16.925416666649998,2.1456666666666666,211.5
Li4.5Al0.5Te1O6,4.9,Li4.5 Al0.5 Te1 O6,10.0,54.416666666666664,296.65000000000003,10.25,97.54166666666667,2.3295833333333333,1.625,2.375,0.8333333333333334,4.833333333333333,1.375,1.75,14.358611111095833,0.03866666666666667,113.91666666666667
Li4.5Cr0.5Te1O6,1.79,Li4.5 Cr0.5 Te1 O6,10.458333333333334,53.416666666666664,348.58874999999995,9.958333333333334,98.29166666666667,2.3316666666666666,1.5833333333333333,2.3333333333333335,1.0416666666666667,4.958333333333333,1.1666666666666667,1.7916666666666667,14.138194444429166,0.03866666666666667,114.08333333333333
Li4.5Fe0.5Te1O6,3.25,Li4.5 Fe0.5 Te1 O6,10.541666666666666,53.666666666666664,333.21374999999995,10.041666666666666,98.0,2.33875,1.625,2.3333333333333335,1.0833333333333333,5.041666666666667,1.1666666666666667,1.7083333333333333,14.119027777762499,0.03866666666666667,114.08333333333333
Li4.5Ga0.5Te1O6,4.99,Li4.5 Ga0.5 Te1 O6,10.75,54.458333333333336,270.3766666666666,10.25,97.58333333333333,2.3379166666666666,1.625,2.375,1.25,5.25,1.375,1.75,14.457673611095833,0.03866666666666667,107.20833333333333
Li4.5Mn0.5Te1O6,1.97,Li4.5 Mn0.5 Te1 O6,10.5,53.541666666666664,321.0470833333333,10.0,98.29166666666667,2.3270833333333334,1.625,2.3333333333333335,1.0416666666666667,5.0,1.1666666666666667,1.75,14.10892720305,0.03866666666666667,113.58333333333333
Li4HgGe2S7,2.75,Li4 Hg1 Ge2 S7,19.142857142857142,60.642857142857146,513.6,11.142857142857142,115.64285714285714,2.0,1.7142857142857142,2.2857142857142856,2.142857142857143,7.142857142857143,1.5714285714285714,1.8571428571428572,22.723503181435714,1.1557142857142857,144.42857142857142
Li8GeN4,2.61,Li8 Ge1 N4,6.461538461538462,31.923076923076923,391.77846153846156,6.3076923076923075,109.84615384615384,1.693076923076923,1.3846153846153846,1.0769230769230769,0.7692307692307693,3.230769230769231,1.2307692307692308,1.8461538461538463,16.52512820510769,2.010076923076923,217.92307692307693
Li9Ga13(Te7O22)3,4.45,Li9 Ga13 Te21 O66,18.807339449541285,78.92660550458716,245.99724770642203,14.403669724770642,91.6697247706422,2.7843119266055045,1.9174311926605505,3.311926605504587,3.1192660550458715,8.34862385321101,2.1926605504587156,2.2752293577981653,15.829793577972477,0.08939449541284404,63.091743119266056
LiAsS2,1.6,Li1 As1 S2,17.0,65.25,580.1025,12.0,114.25,2.08,1.75,2.75,2.5,7.0,1.75,2.0,22.585520833325,1.101,133.75
LiB3,2.0,Li1 B3,4.5,54.25,1874.4225,10.0,95.0,1.775,1.75,0.75,0.0,2.5,3.75,4.0,9.527708333325,1.143,181.75
LiB9PbO15,4.75,Li1 B9 Pb1 O15,9.615384615384615,78.26923076923077,884.9346153846153,14.307692307692308,77.6923076923077,2.8180769230769234,1.9615384615384615,2.730769230769231,0.38461538461538464,5.615384615384615,3.0384615384615383,3.076923076923077,9.455032051280769,0.5275384615384616,81.84615384615384
LiBi3(ClO2)2,3.35,Li1 Bi3 Cl2 O4,31.8,79.5,264.929,14.4,104.0,2.712,1.9,3.5,3.0,12.6,1.9,2.0,20.085833333329997,0.4986,44.1
LiBiS2,0.11,Li1 Bi1 S2,29.5,65.75,443.7025,12.0,121.5,2.04,1.75,2.75,2.5,10.5,1.75,2.0,25.279270833325,1.101,95.25
LiCa3As2H,1.4,Li1 Ca3 As2 H1,18.571428571428573,40.285714285714285,856.1000000000001,5.428571428571429,132.14285714285714,1.5057142857142856,1.7142857142857142,0.8571428571428571,2.857142857142857,5.428571428571429,0.8571428571428571,1.1428571428571428,25.83833333332857,1.1218571428571429,204.28571428571428
LiCdBO3,4.28,Li1 Cd1 B1 O3,13.333333333333334,67.33333333333333,593.385,12.333333333333334,92.33333333333333,2.5050000000000003,1.8333333333333333,2.1666666666666665,1.6666666666666667,5.666666666666667,1.8333333333333333,2.0,11.762638888883332,0.254,104.16666666666667
LiCl,9.33,Li1 Cl1,10.0,47.5,312.645,9.0,115.0,2.0700000000000003,1.5,2.5,0.0,4.0,0.5,1.0,20.54541666665,1.2465,146.5
LiEuH3,1.5,Li1 Eu1 H3,13.8,60.4,318.144,1.4,83.8,1.7530000000000001,1.2,0.0,0.0,2.6,0.0,2.2,14.57966666666,4.711799999999999,208.0
LiF,11.7,Li1 F1,6.0,47.0,253.595,9.0,92.5,2.48,1.5,2.5,0.0,4.0,0.5,1.0,13.150416666649999,0.985,122.0
LiGa(GeSe3)2,2.64,Li1 Ga1 Ge2 Se6,30.2,76.7,614.3399999999999,13.8,121.0,2.211,1.9,2.9,9.0,13.8,2.5,2.6,23.69808333333,0.556,82.7
LiGaO2,5.6,Li1 Ga1 O2,12.5,62.25,216.55,11.5,95.5,2.4175,1.75,2.25,2.5,6.5,2.25,2.5,13.415208333325,0.0,79.25
LiGaTe2,2.31,Li1 Ga1 Te2,34.5,63.75,550.48,11.5,131.5,1.7475,1.75,2.25,7.5,11.5,2.25,2.5,26.244374999974998,0.232,149.25
LiGd5P2O13,3.73,Li1 Gd5 P2 O13,21.761904761904763,68.23809523809524,463.3661904761905,12.095238095238095,103.80952380952381,2.6704761904761902,1.9523809523809523,2.761904761904762,0.23809523809523808,6.619047619047619,1.5238095238095237,5.380952380952381,16.207086167795236,0.15476190476190477,64.71428571428571