composition,gap expt,composition_pmg,MagpieData mean Number,MagpieData mean MendeleevNumber,MagpieData mean MeltingT,MagpieData mean Column,MagpieData mean CovalentRadius,MagpieData mean Electronegativity,MagpieData mean NsValence,MagpieData mean NpValence,MagpieData mean NdValence,MagpieData mean NValence,MagpieData mean NpUnfilled,MagpieData mean NUnfilled,MagpieData mean GSvolume_pa,MagpieData mean GSbandgap,MagpieData mean SpaceGroupNumber
Ag0.5Ge1Pb1.75S4,1.83,Ag0.5 Ge1 Pb1.75 S4,36.275862068965516,83.48275862068965,611.4996551724139,14.89655172413793,119.72413793103448,2.3962068965517243,1.9310344827586208,2.9655172413793105,4.482758620689655,12.758620689655173,2.6206896551724137,2.689655172413793,25.311724137931034,1.2677241379310344,139.48275862068965
Ag0.5Ge1Pb1.75Se4,1.51,Ag0.5 Ge1 Pb1.75 Se4,46.206896551724135,84.03448275862068,669.7837931034484,14.89655172413793,128.0,2.3796551724137927,1.9310344827586208,2.9655172413793105,10.0,18.275862068965516,2.6206896551724137,2.689655172413793,25.385172413793107,0.49365517241379314,108.58620689655173
Ag2GeS3,1.98,Ag2 Ge1 S3,29.0,78.83333333333333,807.7233333333334,14.0,120.83333333333333,2.268333333333333,1.6666666666666667,2.3333333333333335,5.0,9.0,1.6666666666666667,2.0,22.170937499999997,1.1648333333333334,147.5
Ag2GeSe3,0.9,Ag2 Ge1 Se3,38.0,79.33333333333333,860.5433333333334,14.0,128.33333333333334,2.2533333333333334,1.6666666666666667,2.3333333333333335,10.0,14.0,1.6666666666666667,2.0,22.2375,0.4633333333333334,119.5
Ag2HgI4,2.47,Ag2 Hg1 I4,55.142857142857146,83.57142857142857,607.3685714285714,14.571428571428571,139.71428571428572,2.357142857142857,1.7142857142857142,2.857142857142857,10.0,16.571428571428573,0.5714285714285714,0.8571428571428571,32.85108374384286,0.6068571428571429,124.57142857142857
Ag2Mo(I2O7)2,3.06,Ag2 Mo1 I4 O14,21.904761904761905,84.85714285714286,365.7361904761905,15.238095238095237,91.61904761904762,3.0866666666666664,1.8571428571428572,3.619047619047619,3.0952380952380953,8.571428571428571,1.5238095238095237,1.9047619047619047,16.565714285714286,0.2022857142857143,52.523809523809526
Ag2PdO2,0.18,Ag2 Pd1 O2,31.2,73.2,881.5020000000001,12.8,112.2,2.588,1.2,1.6,6.0,8.8,0.8,1.2,13.056000000000001,0.0,139.8
Ag5IO6,1.4,Ag5 I1 O6,28.0,78.58333333333333,574.1916666666667,14.0,105.0,2.7458333333333336,1.5833333333333333,2.4166666666666665,5.0,9.0,1.0833333333333333,1.5,14.941249999999998,0.08850000000000001,105.08333333333333
Ag7AsS6,1.0,Ag7 As1 S6,32.714285714285715,76.21428571428571,861.7621428571429,13.428571428571429,126.0,2.2264285714285714,1.5,1.9285714285714286,5.714285714285714,9.142857142857142,1.0714285714285714,1.5714285714285714,20.800446428571426,0.9437142857142857,154.35714285714286
Ag7AsSe6,1.0,Ag7 As1 Se6,40.42857142857143,76.64285714285714,907.0364285714286,13.428571428571429,132.42857142857142,2.2135714285714285,1.5,1.9285714285714286,10.0,13.428571428571429,1.0714285714285714,1.5714285714285714,20.857499999999998,0.34242857142857147,130.35714285714286
Ag8GeS6,1.18,Ag8 Ge1 S6,33.6,75.13333333333334,894.7333333333333,13.2,127.33333333333333,2.195333333333333,1.4666666666666666,1.7333333333333334,6.0,9.2,1.0666666666666667,1.6,20.55775,0.9063333333333332,163.0
Ag8SnSe6,0.71,Ag8 Sn1 Se6,42.0,75.6,889.9013333333334,13.2,134.6,2.1799999999999997,1.4666666666666666,1.7333333333333334,10.0,13.2,1.0666666666666667,1.6,21.296333333333333,0.31960000000000005,135.0
AgAsSe2,1.4,Ag1 As1 Se2,37.0,81.75,828.2325000000001,14.5,126.0,2.3025,1.75,2.75,10.0,14.5,1.75,2.0,22.58625,0.3995,104.75
AgBi(PS3)2,1.7,Ag1 Bi1 P2 S6,25.6,84.5,474.409,15.2,113.7,2.3810000000000002,1.9,3.3,2.0,8.6,2.1,2.2,24.91417261904,1.6461999999999999,66.1
AgBi(PSe3)2,1.4,Ag1 Bi1 P2 Se6,36.4,85.1,537.793,15.2,122.7,2.363,1.9,3.3,8.0,14.6,2.1,2.2,24.99404761904,0.8044,32.5
AgBiPbS3,1.2,Ag1 Bi1 Pb1 S3,43.333333333333336,82.66666666666667,590.8366666666667,14.666666666666666,125.66666666666667,2.3366666666666664,1.8333333333333333,2.8333333333333335,5.0,14.333333333333334,2.1666666666666665,2.3333333333333335,25.791770833333334,1.101,112.0
AgBiPbSe3,0.13,Ag1 Bi1 Pb1 Se3,52.333333333333336,83.16666666666667,643.6566666666666,14.666666666666666,133.16666666666666,2.3216666666666668,1.8333333333333333,2.8333333333333335,10.0,19.333333333333332,2.1666666666666665,2.3333333333333335,25.858333333333334,0.3995,84.0
AgBiS2,0.9,Ag1 Bi1 S2,40.5,81.75,639.0125,14.5,125.75,2.2775,1.75,2.75,5.0,13.0,1.75,2.0,25.213437499999998,1.101,94.25
AgBiSe2,0.34,Ag1 Bi1 Se2,49.5,82.25,691.8325,14.5,133.25,2.2625,1.75,2.75,10.0,18.0,1.75,2.0,25.28,0.3995,66.25
AgBr,2.52,Ag1 Br1,41.0,80.0,750.365,14.0,132.5,2.445,1.5,2.5,10.0,14.0,0.5,1.0,22.905,0.7285,144.5
AgCl,5.13,Ag1 Cl1,32.0,79.5,703.265,14.0,123.5,2.545,1.5,2.5,5.0,9.0,0.5,1.0,20.41375,1.2465,144.5
AgF,2.8,Ag1 F1,28.0,79.0,644.215,14.0,101.0,2.955,1.5,2.5,5.0,9.0,0.5,1.0,13.018749999999999,0.985,120.0
AgO,1.57,Ag1 O1,27.5,76.0,644.865,13.5,105.5,2.685,1.5,2.0,5.0,8.5,1.0,1.5,12.7175,0.0,118.5
AgP15,1.47,Ag1 P15,17.0,81.875,374.651875,14.75,109.375,2.17375,1.9375,2.8125,0.625,5.375,2.8125,2.875,22.18022321425,1.5234375,15.9375
AgPd(IO3)3,1.5,Ag1 Pd1 I3 O9,23.142857142857142,85.57142857142857,336.9092857142858,15.428571428571429,92.5,3.0764285714285715,1.7857142857142858,3.642857142857143,3.5714285714285716,9.0,1.5,1.5714285714285714,17.266428571428573,0.22757142857142856,53.57142857142857
AgSO4,0.18,Ag1 S1 O4,15.833333333333334,83.5,307.08166666666665,15.166666666666666,85.66666666666667,3.045,1.8333333333333333,3.3333333333333335,1.6666666666666667,6.833333333333333,1.6666666666666667,1.8333333333333333,13.089479166666665,0.367,57.166666666666664
AgTe2As,0.8,Ag1 Te2 As1,46.0,82.25,942.5625,14.5,135.0,2.0775,1.75,2.75,10.0,14.5,1.75,2.0,27.007916666649997,0.232,173.75
Al0.01Cd0.99Sb0.01Te0.99,1.6,Al0.01 Cd0.99 Sb0.01 Te0.99,49.81999999999999,79.99,661.0418500000001,14.0,140.89,1.8943500000000002,2.0,2.0,9.95,13.95,1.03,1.03,27.0980749999835,0.22968000000000002,173.225
Al0.01Ga0.99P1,2.27,Al0.01 Ga0.99 P1,22.91,78.495,313.2578,14.0,114.495,1.999,2.0,2.0,4.95,8.95,4.0,4.0,20.7019815476,0.8125,33.805
Al0.01In0.99P1,1.3,Al0.01 In0.99 P1,31.82,78.99000000000001,376.04359999999997,14.0,124.39500000000001,1.98415,2.0,2.0,4.95,8.95,4.0,4.0,23.376219047600003,0.8125,70.92999999999999
Al0.05Cd0.95Sb0.05Te0.95,1.37,Al0.05 Cd0.95 Sb0.05 Te0.95,49.099999999999994,79.95,671.4492499999999,14.0,140.45,1.89175,2.0,2.0,9.75,13.75,1.15,1.15,26.973708333317497,0.2204,174.125
Al0.15Ga0.85As1,1.6,Al0.15 Ga0.85 As1,30.65,78.925,743.7470000000001,14.0,120.425,1.98,2.0,2.0,9.25,13.25,4.0,4.0,20.337937500000002,0.0,127.075
Al0.1Cd0.9Sb0.1Te0.9,1.36,Al0.1 Cd0.9 Sb0.1 Te0.9,48.2,79.9,684.4585,14.0,139.9,1.8885,2.0,2.0,9.5,13.5,1.3,1.3,26.818249999985,0.2088,175.25
Al0.1In0.9P1,1.5,Al0.1 In0.9 P1,30.2,78.9,398.711,14.0,123.45,1.9765000000000001,2.0,2.0,4.5,8.5,4.0,4.0,23.0261190476,0.8125,74.80000000000001
Al0.2Ga0.8P1,2.3,Al0.2 Ga0.8 P1,21.200000000000003,78.4,373.16100000000006,14.0,114.4,1.98,2.0,2.0,4.0,8.0,4.0,4.0,20.4761190476,0.8125,49.1
Al0.2In0.8P1,1.7,Al0.2 In0.8 P1,28.400000000000002,78.8,423.89700000000005,14.0,122.4,1.968,2.0,2.0,4.0,8.0,4.0,4.0,22.637119047600002,0.8125,79.1
Al0.35Ga0.65As1,2.0,Al0.35 Ga0.65 As1,28.85,78.825,806.803,14.0,120.32499999999999,1.9600000000000002,2.0,2.0,8.25,12.25,4.0,4.0,20.1001875,0.0,143.175
Al0.3Ga0.7As1,1.81,Al0.3 Ga0.7 As1,29.299999999999997,78.85,791.039,14.0,120.35,1.965,2.0,2.0,8.5,12.5,4.0,4.0,20.159625,0.0,139.15
Al0.3In0.7P1,1.9,Al0.3 In0.7 P1,26.599999999999998,78.7,449.08299999999997,14.0,121.35,1.9595,2.0,2.0,3.5,7.5,4.0,4.0,22.2481190476,0.8125,83.4
Al0.45Cd0.55Sb0.45Te0.55,1.93,Al0.45 Cd0.55 Sb0.45 Te0.55,41.900000000000006,79.55,775.5232500000001,14.000000000000002,136.05,1.86575,2.0,2.0,7.75,11.75,2.35,2.35,25.7300416666575,0.12760000000000002,183.125
Al0.4Cd0.6Sb0.4Te0.6,1.8,Al0.4 Cd0.6 Sb0.4 Te0.6,42.800000000000004,79.6,762.514,14.0,136.6,1.8690000000000002,2.0,2.0,8.0,12.0,2.2,2.2,25.885499999990003,0.1392,181.99999999999997
Al0.4Ga0.6P1,2.35,Al0.4 Ga0.6 P1,19.4,78.3,436.217,14.0,114.30000000000001,1.96,2.0,2.0,3.0,7.0,4.0,4.0,20.238369047600003,0.8125,65.2
Al0.4In0.6P1,2.12,Al0.4 In0.6 P1,24.8,78.6,474.269,14.0,120.30000000000001,1.951,2.0,2.0,3.0,7.0,4.0,4.0,21.859119047600004,0.8125,87.69999999999999
Al0.5Ga0.5As1,2.12,Al0.5 Ga0.5 As1,27.5,78.75,854.095,14.0,120.25,1.945,2.0,2.0,7.5,11.5,4.0,4.0,19.921875,0.0,155.25
Al0.6Ga0.4As1,2.3,Al0.6 Ga0.4 As1,26.6,78.7,885.623,14.0,120.2,1.935,2.0,2.0,7.0,11.0,4.0,4.0,19.803,0.0,163.3
Al0.6Ga0.4P1,2.4,Al0.6 Ga0.4 P1,17.6,78.2,499.273,14.0,114.2,1.94,2.0,2.0,2.0,6.0,4.0,4.0,20.0006190476,0.8125,81.3
Al0.6In0.4P1,2.3,Al0.6 In0.4 P1,21.200000000000003,78.4,524.641,14.0,118.2,1.934,2.0,2.0,2.0,6.0,4.0,4.0,21.081119047599998,0.8125,96.3
Al0.75Ga0.25As1,2.42,Al0.75 Ga0.25 As1,25.25,78.625,932.915,14.0,120.125,1.9200000000000002,2.0,2.0,6.25,10.25,4.0,4.0,19.6246875,0.0,175.375
Al0.7In0.3P1,2.3,Al0.7 In0.3 P1,19.4,78.3,549.827,14.0,117.14999999999999,1.9255,2.0,2.0,1.5,5.5,4.0,4.0,20.692119047600002,0.8125,100.6
Al0.8Ga0.2P1,2.43,Al0.8 Ga0.2 P1,15.8,78.1,562.3290000000001,14.0,114.10000000000001,1.9200000000000002,2.0,2.0,1.0,5.0,4.0,4.0,19.7628690476,0.8125,97.4
Al0.99Cd0.01Sb0.99Te0.01,2.21,Al0.99 Cd0.01 Sb0.99 Te0.01,32.18,79.01,916.02315,13.999999999999998,130.10999999999999,1.8306499999999999,2.0,2.0,5.05,9.049999999999999,3.9699999999999998,3.9699999999999998,24.051091666666498,0.00232,195.27499999999998
Al0.99Ga0.01P1,2.49,Al0.99 Ga0.01 P1,14.09,78.005,622.2322,14.0,114.005,1.901,2.0,2.0,0.05,4.05,4.0,4.0,19.5370065476,0.8125,112.695
Al0.99In0.01P1,2.4,Al0.99 In0.01 P1,14.18,78.00999999999999,622.8664,14.0,114.10499999999999,1.9008500000000002,2.0,2.0,0.05,4.05,4.0,4.0,19.5640190476,0.8125,113.07
Al2S3,4.1,Al2 S3,14.8,82.0,606.404,14.8,111.4,2.192,2.0,2.8,0.0,4.8,3.2,3.2,22.064125,1.3212,132.0
Al2Se3,3.1,Al2 Se3,25.6,82.6,669.788,14.8,120.4,2.174,2.0,2.8,6.0,10.8,3.2,3.2,22.144,0.47940000000000005,98.4
AlAgO2,3.6,Al1 Ag1 O2,19.0,78.0,569.5,14.0,99.5,2.605,1.75,2.25,2.5,6.5,2.25,2.5,12.755,0.0,118.5
AlAgS2,3.13,Al1 Ag1 S2,23.0,78.5,736.28,14.0,119.0,2.175,1.75,2.25,2.5,6.5,2.25,2.5,21.095937499999998,1.101,147.5
AlAgSe2,2.55,Al1 Ag1 Se2,32.0,79.0,789.1,14.0,126.5,2.16,1.75,2.25,7.5,11.5,2.25,2.5,21.1625,0.3995,119.5
AlAgTe2,1.8,Al1 Ag1 Te2,41.0,79.5,903.4300000000001,14.0,135.5,1.935,1.75,2.25,7.5,11.5,2.25,2.5,25.58416666665,0.232,188.5
AlBi,0.4,Al1 Bi1,48.0,79.5,738.935,14.0,134.5,1.815,2.0,2.0,5.0,16.0,4.0,4.0,24.715000000000003,0.0,118.5
AlCuS2,3.5,Al1 Cu1 S2,18.5,78.25,766.99,14.0,115.75,2.1675,1.75,2.25,2.5,6.5,2.25,2.5,19.7809375,1.101,147.5
AlCuTe2,2.06,Al1 Cu1 Te2,36.5,79.25,934.1399999999999,14.0,132.25,1.9275,1.75,2.25,7.5,11.5,2.25,2.5,24.269166666649998,0.232,188.5
AlV(TeO4)2,2.9,Al1 V1 Te2 O8,17.0,82.91666666666667,416.68249999999995,14.833333333333334,89.83333333333333,2.9133333333333336,2.0,3.4166666666666665,1.9166666666666667,7.333333333333333,2.0833333333333335,2.6666666666666665,14.321388888883334,0.07733333333333334,71.16666666666667
As2Ir,1.0,As2 Ir1,47.666666666666664,76.0,1639.6666666666667,13.0,126.33333333333333,2.186666666666667,2.0,2.0,9.0,17.666666666666668,2.0,3.0,19.52,0.0,185.66666666666666
As2O3,4.0,As2 O3,18.0,85.8,468.88,15.6,87.2,2.936,2.0,3.6,4.0,9.6,2.4,2.4,14.333000000000002,0.0,73.6
As2Os,0.9,As2 Os1,47.333333333333336,75.0,1828.6666666666667,12.666666666666666,127.33333333333333,2.186666666666667,2.0,2.0,8.666666666666666,17.333333333333332,2.0,3.3333333333333335,19.48,0.0,175.33333333333334
As2Rh,1.15,As2 Rh1,37.0,75.66666666666667,1472.3333333333333,13.0,126.66666666666667,2.2133333333333334,1.6666666666666667,2.0,9.333333333333334,13.0,2.0,3.0,19.330000000000002,0.0,185.66666666666666
As2Ru,0.8,As2 Ru1,36.666666666666664,74.66666666666667,1595.6666666666667,12.666666666666666,128.0,2.186666666666667,1.6666666666666667,2.0,9.0,12.666666666666666,2.0,3.3333333333333335,19.286666666666665,0.0,175.33333333333334
As2S5,2.48,As2 S5,20.857142857142858,86.85714285714286,588.8285714285714,15.714285714285714,109.0,2.4657142857142857,2.0,3.7142857142857144,2.857142857142857,8.571428571428571,2.2857142857142856,2.2857142857142856,24.75491071428571,1.5728571428571427,97.42857142857143
AsBr3,2.6,As1 Br3,34.5,92.25,471.85,16.5,119.75,2.7649999999999997,2.0,4.5,10.0,16.5,1.5,1.5,27.65375,1.09275,89.5
AsOsS,1.3,As1 Os1 S1,41.666666666666664,76.33333333333333,1594.7866666666666,13.0,122.66666666666667,2.3200000000000003,2.0,2.3333333333333335,5.333333333333333,14.333333333333334,1.6666666666666667,3.0,20.683958333333333,0.734,143.33333333333334
AsP,0.23,As1 P1,24.0,83.5,703.65,15.0,113.0,2.185,2.0,3.0,5.0,10.0,3.0,3.0,22.3726190476,0.8125,84.0
AsPPd,0.45,As1 P1 Pd1,31.333333333333332,76.33333333333333,1078.45,13.333333333333334,121.66666666666667,2.19,1.3333333333333333,2.0,6.666666666666667,10.0,2.0,2.0,19.7184126984,0.5416666666666666,131.0
AsPPt,0.4,As1 P1 Pt1,42.0,76.66666666666667,1149.5666666666666,13.333333333333334,120.66666666666667,2.216666666666667,1.6666666666666667,2.0,6.333333333333333,14.666666666666666,2.0,2.6666666666666665,19.921746031733335,0.5416666666666666,131.0
AsPRu,0.8,As1 P1 Ru1,30.666666666666668,74.33333333333333,1338.1000000000001,12.666666666666666,124.0,2.19,1.6666666666666667,2.0,5.666666666666667,9.333333333333334,2.0,3.3333333333333335,19.4184126984,0.5416666666666666,120.66666666666667
AsRuS,1.2,As1 Ru1 S1,31.0,76.0,1361.7866666666666,13.0,123.33333333333333,2.3200000000000003,1.6666666666666667,2.3333333333333335,5.666666666666667,9.666666666666666,1.6666666666666667,3.0,20.490624999999998,0.734,143.33333333333334
AsS,2.4,As1 S1,24.5,86.0,739.1800000000001,15.5,112.0,2.38,2.0,3.5,5.0,10.5,2.5,2.5,23.9809375,1.101,118.0
AsS3,2.35,As1 S3,20.25,87.0,563.77,15.75,108.5,2.48,2.0,3.75,2.5,8.25,2.25,2.25,24.88390625,1.6515,94.0
AsSI,2.05,As1 S1 I1,34.0,89.33333333333333,621.7366666666667,16.0,121.0,2.473333333333333,2.0,4.0,6.666666666666667,12.666666666666666,2.0,2.0,30.325625000000002,1.088,100.0
AsSeI,1.76,As1 Se1 I1,40.0,89.66666666666667,656.9499999999999,16.0,126.0,2.4633333333333334,2.0,4.0,10.0,16.0,2.0,2.0,30.37,0.6203333333333334,81.33333333333333
B2Mo(PbO2)6,2.9,B2 Mo1 Pb6 O12,30.476190476190474,82.0952380952381,564.4409523809524,14.666666666666666,94.76190476190476,2.9285714285714284,1.9523809523809523,2.9523809523809526,3.0952380952380953,12.0,2.761904761904762,3.0476190476190474,14.664523809523809,0.14514285714285716,97.85714285714286
B2O3,4.89,B2 O3,6.8,81.0,972.0799999999999,14.8,73.2,2.88,2.0,2.8,0.0,4.8,3.2,3.2,8.332,0.6096,73.6
B2Se2O7,4.64,B2 Se2 O7,12.181818181818182,84.63636363636364,551.6,15.454545454545455,79.0909090909091,3.0236363636363635,2.0,3.4545454545454546,1.8181818181818181,7.2727272727272725,2.5454545454545454,2.5454545454545454,11.810909090909092,0.42236363636363633,40.36363636363637
B3H2Pb2O7.5,4.42,B3 H2 Pb2 O7.5,16.620689655172413,83.75862068965517,598.9131034482758,13.03448275862069,75.93103448275862,2.8262068965517244,1.8620689655172413,2.5517241379310347,1.3793103448275863,7.724137931034483,2.6206896551724137,2.7586206896551726,10.983103448275862,1.3984827586206896,98.34482758620689
B3Pb10Br3O13,3.25,B3 Pb10 Br3 O13,36.0,84.20689655172414,502.0655172413793,15.10344827586207,101.03448275862068,2.862758620689655,2.0,3.103448275862069,4.482758620689655,14.413793103448276,2.896551724137931,2.896551724137931,17.566293103448277,0.30837931034482763,106.75862068965517
B3Pb3NO10,3.64,B3 Pb3 N1 O10,20.470588235294116,83.0,556.2870588235294,15.058823529411764,83.58823529411765,2.9735294117647055,2.0,3.0588235294117645,1.7647058823529411,9.294117647058824,2.9411764705882355,2.9411764705882355,12.450955882352941,0.6475882352941177,87.47058823529412
B4C,1.64,B4 C1,5.2,73.0,2643.0,13.2,82.4,2.1420000000000003,2.0,1.2,0.0,3.2,4.8,4.8,6.866,2.1184000000000003,171.6
B4H2Pb6O13,3.24,B4 H2 Pb6 O13,24.72,83.56,549.4432,13.84,85.28,2.8503999999999996,1.92,2.72,2.4,10.4,2.8,2.88,13.1578,0.87208,102.32
B6As,1.51,B6 As1,9.0,73.71428571428571,2168.285714285714,13.285714285714286,89.0,2.06,2.0,1.2857142857142858,1.4285714285714286,4.714285714285714,4.714285714285714,4.714285714285714,9.315714285714288,1.3062857142857143,166.0
B6P,3.3,B6 P1,6.428571428571429,73.57142857142857,2057.9,13.285714285714286,87.28571428571429,2.0614285714285714,2.0,1.2857142857142858,0.0,3.2857142857142856,4.714285714285714,4.714285714285714,9.372176870742859,1.5384285714285715,142.57142857142858
BAs,1.45,B1 As1,19.0,78.0,1719.0,14.0,101.5,2.1100000000000003,2.0,2.0,5.0,9.0,4.0,4.0,14.67375,0.762,166.0
BH(PbO2)2,3.76,B1 H1 Pb2 O4,25.25,84.25,472.80375000000004,13.25,83.875,2.8325,1.875,2.625,2.5,10.5,2.625,2.75,13.3034375,1.1721249999999999,107.25
BP,4.2,B1 P1,10.0,77.5,1332.65,14.0,95.5,2.115,2.0,2.0,0.0,4.0,4.0,4.0,14.8713690476,1.5745,84.0
BPb2ClO3,3.99,B1 Pb2 Cl1 O3,30.0,84.14285714285714,555.0314285714286,15.142857142857142,96.57142857142857,2.882857142857143,2.0,3.142857142857143,2.857142857142857,12.0,2.857142857142857,2.857142857142857,16.457857142857144,0.5738571428571427,102.28571428571429
BPb6BrO7,2.84,B1 Pb6 Br1 O7,39.2,84.13333333333334,440.0706666666667,15.066666666666666,102.8,2.8706666666666667,2.0,3.066666666666667,4.666666666666667,15.333333333333334,2.933333333333333,2.933333333333333,17.936500000000002,0.19873333333333332,110.93333333333334
BPb7Br3O7,2.62,B1 Pb7 Br3 O7,41.111111111111114,85.16666666666667,429.62611111111113,15.222222222222221,107.11111111111111,2.8505555555555557,2.0,3.2222222222222223,5.555555555555555,16.22222222222222,2.7777777777777777,2.7777777777777777,19.784305555555555,0.3275,112.05555555555556
BSb,2.6,B1 Sb1,28.0,78.5,1625.8899999999999,14.0,111.5,2.045,2.0,2.0,5.0,9.0,4.0,4.0,19.36625,0.762,166.0
BSbPbS4,1.8,B1 Sb1 Pb1 S4,28.857142857142858,84.28571428571429,772.2614285714286,15.142857142857142,112.71428571428571,2.391428571428572,2.0,3.142857142857143,2.857142857142857,10.0,2.857142857142857,2.857142857142857,24.284285714285716,1.4760000000000002,119.57142857142857
Ba(GaS2)2,4.13,Ba1 Ga2 S4,26.0,72.71428571428571,451.3228571428572,13.142857142857142,125.57142857142857,2.1185714285714288,2.0,2.5714285714285716,2.857142857142857,7.428571428571429,2.5714285714285716,2.5714285714285716,29.2075,1.2582857142857142,91.0
Ba(GaSe2)2,3.16,Ba1 Ga2 Se4,36.285714285714285,73.28571428571429,511.68857142857144,13.142857142857142,134.14285714285714,2.1014285714285714,2.0,2.5714285714285716,8.571428571428571,13.142857142857142,2.5714285714285716,2.5714285714285716,29.28357142857143,0.4565714285714286,59.0
Ba(InS2)2,3.06,Ba1 In2 S4,31.142857142857142,73.0,487.5628571428571,13.142857142857142,131.28571428571428,2.11,2.0,2.5714285714285716,2.857142857142857,7.428571428571429,2.5714285714285716,2.5714285714285716,30.75107142857143,1.2582857142857142,112.42857142857143
Ba(InSe2)2,2.63,Ba1 In2 Se4,41.42857142857143,73.57142857142857,547.9285714285714,13.142857142857142,139.85714285714286,2.0928571428571425,2.0,2.5714285714285716,8.571428571428571,13.142857142857142,2.5714285714285716,2.5714285714285716,30.82714285714286,0.4565714285714286,80.42857142857143
Ba(ZnAs)2,0.23,Ba1 Zn2 As2,36.4,63.0,913.0719999999999,11.2,139.4,1.7100000000000002,2.0,1.2,8.0,11.2,1.2,1.2,27.172000000000004,0.0,189.8
Ba1.88Ta15O32,0.13,Ba1.88 Ta15 O32,29.792962356792145,72.03191489361703,1083.9525368248774,12.085924713584289,103.64566284779052,2.7465875613747954,2.0,2.618657937806874,0.9206219312602292,9.835515548281506,1.309328968903437,3.4574468085106385,13.967045826513914,0.0,86.93780687397711
Ba12In4S19,2.56,Ba12 In4 S19,33.48571428571429,59.42857142857143,602.7954285714286,10.857142857142858,146.94285714285715,1.9091428571428573,2.0,2.2857142857142856,1.1428571428571428,5.428571428571429,1.6571428571428573,1.6571428571428573,38.57344642857142,1.1953714285714285,132.4