composition,gap expt,composition_pmg,MagpieData mean Number,MagpieData mean MendeleevNumber,MagpieData mean MeltingT,MagpieData mean Column,MagpieData mean CovalentRadius,MagpieData mean Electronegativity,MagpieData mean NsValence,MagpieData mean NpValence,MagpieData mean NdValence,MagpieData mean NValence,MagpieData mean NpUnfilled,MagpieData mean NUnfilled,MagpieData mean GSvolume_pa,MagpieData mean GSbandgap,MagpieData mean SpaceGroupNumber
BaSnO3,3.1,Ba1 Sn1 O3,26.0,70.0,333.896,12.8,110.4,2.634,2.0,2.8,2.0,6.8,2.0,2.0,24.838,0.0,81.2
BaTaNO2,1.78,Ba1 Ta1 N1 O2,30.4,62.6,892.5300000000001,10.8,117.6,2.4619999999999997,2.0,2.2,0.6,7.6,1.4,2.8,22.93775,1.2874,135.2
BaTe,3.4,Ba1 Te1,54.0,49.5,861.3299999999999,9.0,176.5,1.495,2.0,2.0,5.0,9.0,1.0,1.0,49.17666666665,0.232,190.5
BaTeMo2O9,3.12,Ba1 Te1 Mo2 O9,20.307692307692307,75.53846153846153,615.9892307692307,13.384615384615385,96.53846153846153,2.9438461538461542,1.8461538461538463,3.076923076923077,1.5384615384615385,6.461538461538462,1.5384615384615385,2.4615384615384617,16.282948717946155,0.0356923076923077,72.84615384615384
BaUSe3,1.0,Ba1 U1 Se3,50.0,59.2,778.0,10.6,154.2,1.984,2.0,2.4,6.2,11.2,1.2,5.2,32.275,0.47940000000000005,66.8
BaV2SeO8,2.13,Ba1 V2 Se1 O8,16.666666666666668,73.83333333333333,524.8666666666667,13.0,97.41666666666667,2.8516666666666666,2.0,3.0,1.3333333333333333,6.333333333333333,1.5,2.6666666666666665,15.6975,0.06658333333333334,66.41666666666667
BaZnGeSe4,2.46,Ba1 Zn1 Ge1 Se4,36.285714285714285,73.28571428571429,697.1542857142857,13.142857142857142,133.85714285714286,2.107142857142857,2.0,2.5714285714285716,8.571428571428571,13.142857142857142,1.7142857142857142,1.7142857142857142,29.176428571428573,0.5112857142857143,100.57142857142857
BaZnSO,3.9,Ba1 Zn1 S1 O1,27.5,63.25,533.96,11.5,127.0,2.14,2.0,2.0,2.5,6.5,1.0,1.0,28.110468750000003,0.5505,126.25
BaZnSiSe4,2.71,Ba1 Zn1 Si1 Se4,33.714285714285715,73.14285714285714,765.0971428571429,13.142857142857142,132.57142857142858,2.091428571428571,2.0,2.5714285714285716,7.142857142857143,11.714285714285714,1.7142857142857142,1.7142857142857142,28.810000000000002,0.5670000000000001,100.85714285714286
Be3N2,3.8,Be3 N2,5.2,73.0,961.22,7.2,86.0,2.158,2.0,1.2,0.0,3.2,1.2,1.2,10.641499999999999,2.5748,194.0
Be3Sb2,0.67,Be3 Sb2,22.8,74.2,1297.512,7.2,113.2,1.7619999999999998,2.0,1.2,4.0,7.2,1.2,1.2,17.357999999999997,0.0,182.8
BeO,10.39,Be1 O1,6.0,77.0,807.4,9.0,81.0,2.505,2.0,2.0,0.0,4.0,1.0,1.0,8.4975,0.0,103.0
BeS,4.17,Be1 S1,10.0,77.5,974.1800000000001,9.0,100.5,2.075,2.0,2.0,0.0,4.0,1.0,1.0,16.838437499999998,1.101,132.0
BeSe,4.0,Be1 Se1,19.0,78.0,1027.0,9.0,108.0,2.06,2.0,2.0,5.0,9.0,1.0,1.0,16.905,0.3995,104.0
BeTe,2.89,Be1 Te1,28.0,78.5,1141.33,9.0,117.0,1.835,2.0,2.0,5.0,9.0,1.0,1.0,21.32666666665,0.232,173.0
Bi0.002Te0.003Pb0.999Se0.999,0.79,Bi0.002 Te0.003 Pb0.999 Se0.999,58.01597603594609,85.00848726909635,547.5647378931603,15.001497753369945,133.02246630054918,2.439071392910634,2.0,3.001497753369945,10.0,21.99800299550674,2.998502246630055,2.998502246630055,27.032531203195152,0.39919770344483274,119.44133799301046
Bi0.04Te0.06Pb0.98Se0.98,0.28,Bi0.04 Te0.06 Pb0.98 Se0.98,58.310679611650485,85.16504854368932,552.3560194174757,15.029126213592233,133.4368932038835,2.421941747572815,2.0,3.029126213592233,10.0,21.961165048543688,2.970873786407767,2.970873786407767,27.355922330096114,0.393621359223301,118.35922330097087
Bi0.2Sb1.8Te3,0.28,Bi0.2 Sb1.8 Te3,52.879999999999995,88.03999999999999,780.7328,15.6,138.76,2.0788,2.0,3.6,10.0,16.16,2.4,2.4,33.53759999998,0.27840000000000004,151.44
Bi0.2Te0.3Pb0.9Se0.9,0.25,Bi0.2 Te0.3 Pb0.9 Se0.9,59.391304347826086,85.73913043478262,569.9247826086958,15.130434782608695,134.95652173913044,2.359130434782609,2.0,3.130434782608696,10.0,21.82608695652174,2.8695652173913047,2.8695652173913047,28.541739130430443,0.3731739130434783,114.39130434782611
Bi0.4Sb1.6Te3,0.21,Bi0.4 Sb1.6 Te3,54.160000000000004,88.08,766.3576,15.6,139.12,2.0776000000000003,2.0,3.6,10.0,16.72,2.4,2.4,33.59319999998,0.27840000000000004,145.28000000000003
Bi0.4Te0.6Pb0.8Se0.8,0.22,Bi0.4 Te0.6 Pb0.8 Se0.8,60.46153846153845,86.30769230769229,587.3246153846154,15.23076923076923,136.46153846153845,2.296923076923077,2.0,3.230769230769231,10.0,21.692307692307693,2.7692307692307696,2.7692307692307696,29.716153846146156,0.35292307692307695,110.46153846153845
Bi0.6Sb1.4Te3,0.2,Bi0.6 Sb1.4 Te3,55.44,88.12,751.9824,15.6,139.48,2.0764000000000005,2.0,3.6,10.0,17.28,2.4,2.4,33.64879999998,0.27840000000000004,139.11999999999998
Bi1.4Sb0.6Te3,0.17,Bi1.4 Sb0.6 Te3,60.55999999999999,88.28,694.4816,15.6,140.92,2.0716,2.0,3.6,10.0,19.52,2.4,2.4,33.87119999998,0.27840000000000004,114.47999999999999
Bi1.6Sb0.4Te3,0.16,Bi1.6 Sb0.4 Te3,61.84000000000001,88.32000000000001,680.1064,15.6,141.28000000000003,2.0704000000000002,2.0,3.6,10.0,20.080000000000002,2.4,2.4,33.92679999998,0.27840000000000004,108.32000000000001
Bi1.8Sb0.2Te3,0.15,Bi1.8 Sb0.2 Te3,63.120000000000005,88.36,665.7312,15.6,141.64000000000001,2.0692,2.0,3.6,10.0,20.64,2.4,2.4,33.98239999998,0.27840000000000004,102.16
Bi1.98Sb0.02Te3,0.14,Bi1.98 Sb0.02 Te3,64.272,88.396,652.79352,15.6,141.964,2.0681200000000004,2.0,3.6,10.0,21.144,2.4,2.4,34.03243999998,0.27840000000000004,96.616
Bi12PO20,3.25,Bi12 P1 O20,35.484848484848484,86.51515151515152,240.79090909090908,15.606060606060606,97.06060606060606,2.8857575757575757,2.0,3.606060606060606,3.6363636363636362,14.333333333333334,2.393939393939394,2.393939393939394,18.183946608945455,0.04924242424242424,11.696969696969697
Bi1Sb0.15,0.02,Bi1 Sb0.15,78.82608695652175,85.86956521739131,591.275652173913,15.000000000000002,146.82608695652175,2.0239130434782613,2.0,3.0000000000000004,10.0,27.17391304347826,3.0000000000000004,3.0000000000000004,32.76869565217392,0.0,32.08695652173913
Bi2(MoO4)3,2.9,Bi2 Mo3 O12,22.823529411764707,80.3529411764706,613.7882352941176,14.117647058823529,91.17647058823529,3.0470588235294116,1.8235294117647058,3.176470588235294,2.0588235294117645,8.705882352941176,1.7647058823529411,2.823529411764706,13.072352941176472,0.0,50.294117647058826
Bi24BO39,2.91,Bi24 B1 O39,36.078125,86.390625,274.23125,15.578125,97.03125,2.885625,2.0,3.578125,3.75,14.578125,2.421875,2.421875,18.0166796875,0.0238125,14.40625
Bi2AsClO4,3.43,Bi2 As1 Cl1 O4,31.0,87.25,321.2,15.75,97.625,2.8925,2.0,3.75,3.75,13.0,2.25,2.25,18.6240625,0.311625,37.75
Bi2CO5,3.42,Bi2 C1 O5,26.5,85.5,648.225,15.5,87.75,2.97375,2.0,3.5,2.5,11.5,2.5,2.5,14.633125000000001,0.562,34.75
Bi2I4O13,3.3,Bi2 I4 O13,25.36842105263158,88.78947368421052,176.2421052631579,16.105263157894736,90.0,3.126315789473684,2.0,4.105263157894737,3.1578947368421053,10.736842105263158,1.894736842105263,1.894736842105263,18.753947368421056,0.22357894736842107,22.94736842105263
Bi2Mo2Se2O13,3.15,Bi2 Mo2 Se2 O13,22.210526315789473,83.21052631578948,451.64210526315793,14.842105263157896,89.57894736842105,3.062105263157895,1.894736842105263,3.473684210526316,2.6315789473684212,9.473684210526315,1.894736842105263,2.526315789473684,14.078157894736842,0.08410526315789474,35.05263157894737
Bi2SI2O11,3.74,Bi2 S1 I2 O11,23.5,88.0625,178.35375,16.0,87.8125,3.11125,2.0,4.0,2.5,10.25,2.0,2.0,17.366992187500003,0.27037500000000003,22.125
Bi2Se3,0.35,Bi2 Se3,53.6,87.8,514.1600000000001,15.6,131.2,2.338,2.0,3.6,10.0,21.2,2.4,2.4,28.732000000000006,0.47940000000000005,13.2
Bi2SeI2O11,3.7,Bi2 Se1 I2 O11,24.625,88.125,184.95625,16.0,88.75,3.109375,2.0,4.0,3.125,10.875,2.0,2.0,17.3753125,0.1826875,18.625
Bi2Te0.03Se2.97,0.27,Bi2 Te0.03 Se2.97,53.708000000000006,87.80600000000001,515.53196,15.6,131.308,2.3353,2.0,3.6,10.0,21.2,2.4,2.4,28.785059999999806,0.4773900000000001,14.028
Bi2Te0.1Se2.9,0.78,Bi2 Te0.1 Se2.9,53.959999999999994,87.82,518.7332,15.6,131.56,2.3289999999999997,2.0,3.6,10.0,21.2,2.4,2.4,28.908866666666007,0.4727,15.960000000000003
Bi2Te0.3Se2.7,0.24,Bi2 Te0.3 Se2.7,54.67999999999999,87.86,527.8796,15.6,132.28,2.311,2.0,3.6,10.0,21.2,2.4,2.4,29.262599999998002,0.4593,21.48
Bi2Te0.45Se2.55,0.2,Bi2 Te0.45 Se2.55,55.220000000000006,87.89,534.7393999999999,15.6,132.82,2.2975000000000003,2.0,3.6,10.0,21.2,2.4,2.4,29.527899999996997,0.44925,25.619999999999997
Bi2Te0.4Se2.6,0.7,Bi2 Te0.4 Se2.6,55.040000000000006,87.88,532.4528,15.6,132.64000000000001,2.302,2.0,3.6,10.0,21.2,2.4,2.4,29.439466666664003,0.45260000000000006,24.240000000000002
Bi2Te0.6Se2.4,0.28,Bi2 Te0.6 Se2.4,55.75999999999999,87.92,541.5992,15.6,133.35999999999999,2.284,2.0,3.6,10.0,21.2,2.4,2.4,29.793199999996,0.4391999999999999,29.76
Bi2Te0.9Se2.1,0.28,Bi2 Te0.9 Se2.1,56.84000000000001,87.97999999999999,555.3188,15.6,134.44,2.257,2.0,3.6,10.0,21.2,2.4,2.4,30.323799999994,0.4191000000000001,38.040000000000006
Bi2Te1.2Se1.8,0.28,Bi2 Te1.2 Se1.8,57.92,88.04,569.0384,15.6,135.52,2.23,2.0,3.6,10.0,21.2,2.4,2.4,30.854399999992,0.399,46.32
Bi2Te1.5Se1.5,0.29,Bi2 Te1.5 Se1.5,59.0,88.1,582.758,15.6,136.6,2.2030000000000003,2.0,3.6,10.0,21.2,2.4,2.4,31.384999999989997,0.37890000000000007,54.6
Bi2Te2.1Se0.9,0.29,Bi2 Te2.1 Se0.9,61.160000000000004,88.22,610.1972,15.6,138.76,2.149,2.0,3.6,10.0,21.2,2.4,2.4,32.446199999986,0.33870000000000006,71.16
Bi2Te2.4Se0.6,0.25,Bi2 Te2.4 Se0.6,62.239999999999995,88.28,623.9168,15.6,139.84,2.122,2.0,3.6,10.0,21.2,2.4,2.4,32.976799999984,0.3186,79.44
Bi2Te2.7Se0.3,0.2,Bi2 Te2.7 Se0.3,63.31999999999999,88.34,637.6364,15.6,140.92000000000002,2.095,2.0,3.6,10.0,21.2,2.4,2.4,33.507399999982,0.29850000000000004,87.72
Bi2Te2.97Se0.03,0.15,Bi2 Te2.97 Se0.03,64.29199999999999,88.39399999999999,649.9840399999999,15.6,141.892,2.0706999999999995,2.0,3.6,9.999999999999998,21.2,2.4,2.4,33.9849399999802,0.28041,95.172
Bi2Te2SO10,3.6,Bi2 Te2 S1 O10,24.4,87.33333333333333,231.36533333333333,15.866666666666667,89.13333333333334,3.0146666666666664,2.0,3.8666666666666667,2.6666666666666665,10.4,2.1333333333333333,2.1333333333333333,16.81756944444,0.20866666666666667,34.53333333333333
Bi2Te2Se,0.3,Bi2 Te2 Se1,60.8,88.2,605.624,15.6,138.4,2.158,2.0,3.6,10.0,21.2,2.4,2.4,32.269333333320006,0.34540000000000004,68.4
Bi2Te3,0.25,Bi2 Te3,64.4,88.4,651.356,15.6,142.0,2.068,2.0,3.6,10.0,21.2,2.4,2.4,34.03799999998,0.27840000000000004,96.0
Bi3BTeO9,2.6,Bi3 B1 Te1 O9,27.0,85.92857142857143,371.2185714285714,15.571428571428571,90.0,2.9400000000000004,2.0,3.5714285714285716,2.857142857142857,11.428571428571429,2.4285714285714284,2.4285714285714284,15.909345238092856,0.142,33.0
Bi3I4O13F3,3.7,Bi3 I4 O13 F3,25.73913043478261,89.21739130434783,176.2391304347826,16.17391304347826,88.21739130434783,3.1895652173913045,2.0,4.173913043478261,3.0434782608695654,11.043478260869565,1.826086956521739,1.826086956521739,18.191195652173914,0.4416521739130435,21.434782608695652
Bi3Se2NO11,3.59,Bi3 Se2 N1 O11,24.235294117647058,86.76470588235294,193.3558823529412,15.764705882352942,87.11764705882354,3.0611764705882347,2.0,3.764705882352941,2.9411764705882355,11.176470588235293,2.235294117647059,2.235294117647059,15.624338235294116,0.4726470588235294,22.941176470588236
Bi4Pb7Se13,0.29,Bi4 Pb7 Se13,56.166666666666664,86.16666666666667,533.4945833333334,15.25,132.25,2.3975,2.0,3.25,10.0,21.666666666666668,2.75,2.75,27.730416666666667,0.4327916666666667,75.20833333333333
Bi4Pd(SeO3)4,2.06,Bi4 Pd1 Se4 O12,29.047619047619047,86.0,316.1547619047619,15.523809523809524,95.38095238095238,2.940952380952381,1.9047619047619047,3.619047619047619,4.285714285714286,12.476190476190476,2.0952380952380953,2.0952380952380953,17.102380952380955,0.1521904761904762,22.523809523809526
Bi5IO7,2.76,Bi5 I1 O7,40.30769230769231,87.3076923076923,268.65,15.692307692307692,103.15384615384616,2.8338461538461535,2.0,3.6923076923076925,4.615384615384615,15.692307692307692,2.3076923076923075,2.3076923076923075,20.884615384615383,0.0816923076923077,16.0
Bi7O5F11,4.05,Bi7 O5 F11,31.304347826086957,89.56521739130434,203.1869565217391,16.17391304347826,86.65217391304348,3.266086956521739,2.0,4.173913043478261,3.0434782608695654,13.478260869565217,1.826086956521739,1.826086956521739,16.650326086956525,0.9421739130434782,13.434782608695652
Bi8Te7S5,0.4,Bi8 Te7 S5,55.4,87.9,567.781,15.6,133.75,2.1879999999999997,2.0,3.6,7.5,18.7,2.4,2.4,31.793885416654994,0.7129,75.5
Bi9S6O7.5,1.27,Bi9 S6 O7.5,40.13333333333333,86.86666666666666,339.5893333333333,15.6,109.2,2.6426666666666665,2.0,3.6,4.0,15.2,2.4,2.4,23.0915,0.5871999999999999,27.466666666666665
BiBPbO4,3.2,Bi1 B1 Pb1 O4,28.857142857142858,83.85714285714286,530.3157142857143,15.142857142857142,91.71428571428571,2.8785714285714286,2.0,3.142857142857143,2.857142857142857,12.0,2.857142857142857,2.857142857142857,14.950357142857143,0.21771428571428572,64.42857142857143
BiBr3,2.66,Bi1 Br3,47.0,92.75,335.45000000000005,16.5,127.0,2.7249999999999996,2.0,4.5,10.0,20.0,1.5,1.5,30.3475,1.09275,51.0
BiBrO,2.92,Bi1 Br1 O1,42.0,89.33333333333333,288.3333333333333,16.0,111.33333333333333,2.8066666666666666,2.0,4.0,6.666666666666667,17.333333333333332,2.0,2.0,23.845000000000002,0.4856666666666667,29.333333333333332
BiClO,3.46,Bi1 Cl1 O1,36.0,89.0,256.93333333333334,16.0,105.33333333333333,2.873333333333333,2.0,4.0,3.3333333333333335,14.0,2.0,2.0,22.18416666666667,0.831,29.333333333333332
BiIO3F2,3.97,Bi1 I1 O3 F2,25.428571428571427,89.85714285714286,171.80714285714288,16.285714285714285,85.57142857142857,3.2800000000000002,2.0,4.285714285714286,2.857142857142857,11.142857142857142,1.7142857142857142,1.7142857142857142,17.52785714285714,0.7145714285714285,20.285714285714285
BiP3(PbO4)3,3.7,Bi1 P3 Pb3 O12,24.736842105263158,85.36842105263158,208.1963157894737,15.473684210526315,89.42105263157895,2.9926315789473685,2.0,3.473684210526316,2.1052631578947367,10.526315789473685,2.526315789473684,2.526315789473684,15.486879699242104,0.2565789473684211,44.05263157894737
BiPO4,3.85,Bi1 P1 O4,21.666666666666668,86.16666666666667,180.15,15.666666666666666,86.5,2.9949999999999997,2.0,3.6666666666666665,1.6666666666666667,9.666666666666666,2.3333333333333335,2.3333333333333335,15.323373015866666,0.2708333333333333,10.333333333333334
BiPb2S2I3,1.6,Bi1 Pb2 S2 I3,54.75,89.0,460.36125000000004,15.75,133.375,2.4775,2.0,3.75,7.5,18.5,2.25,2.25,33.723593750000006,0.94875,99.25
BiPbClO2,2.45,Bi1 Pb1 Cl1 O2,39.6,87.0,285.24199999999996,15.6,105.6,2.878,2.0,3.6,4.0,15.2,2.4,2.4,20.753500000000003,0.4986,65.0
BiSBr,1.88,Bi1 S1 Br1,44.666666666666664,89.66666666666667,399.52,16.0,124.33333333333333,2.52,2.0,4.0,6.666666666666667,17.333333333333332,2.0,2.0,29.405625,1.2196666666666667,48.666666666666664
BiSCl,1.89,Bi1 S1 Cl1,38.666666666666664,89.33333333333333,368.11999999999995,16.0,118.33333333333333,2.5866666666666664,2.0,4.0,3.3333333333333335,14.0,2.0,2.0,27.744791666666668,1.5650000000000002,48.666666666666664
BiSI,1.56,Bi1 S1 I1,50.666666666666664,90.0,439.87000000000006,16.0,130.66666666666666,2.42,2.0,4.0,6.666666666666667,17.333333333333332,2.0,2.0,33.917291666666664,1.088,48.666666666666664
BiSbTe3,0.19,Bi1 Sb1 Te3,58.0,88.2,723.232,15.6,140.2,2.0740000000000003,2.0,3.6,10.0,18.4,2.4,2.4,33.759999999979996,0.27840000000000004,126.8
BiSe,0.4,Bi1 Se1,58.5,87.5,519.2,15.5,134.0,2.285,2.0,3.5,10.0,22.5,2.5,2.5,29.435000000000002,0.3995,13.0
BiSeI,1.28,Bi1 Se1 I1,56.666666666666664,90.33333333333333,475.0833333333333,16.0,135.66666666666666,2.41,2.0,4.0,10.0,20.666666666666668,2.0,2.0,33.961666666666666,0.6203333333333334,30.0
BiSeO3F,3.83,Bi1 Se1 O3 F1,25.0,88.16666666666667,209.38333333333335,16.0,87.16666666666667,3.145,2.0,4.0,3.3333333333333335,11.666666666666666,2.0,2.0,15.982083333333334,0.4615,12.833333333333334
BiTeI,0.46,Bi1 Te1 I1,62.666666666666664,90.66666666666667,551.3033333333333,16.0,141.66666666666666,2.2600000000000002,2.0,4.0,10.0,20.666666666666668,2.0,2.0,36.90944444443333,0.5086666666666667,76.0
BiTeNO6,3.62,Bi1 Te1 N1 O6,21.11111111111111,86.66666666666667,184.32333333333332,15.777777777777779,83.66666666666667,3.088888888888889,2.0,3.7777777777777777,2.2222222222222223,9.555555555555555,2.2222222222222223,2.2222222222222223,15.234675925922224,0.7667777777777779,47.77777777777778
CBr4,3.7,C1 Br4,29.2,91.4,977.24,16.4,111.2,2.878,2.0,4.4,8.0,14.4,1.6,1.6,24.712,2.0648000000000004,90.0
CI4,2.26,C1 I4,43.6,92.2,1074.08,16.4,126.4,2.6380000000000003,2.0,4.4,8.0,14.4,1.6,1.6,35.54,1.7488,90.0
Ca(BiO2)2,3.08,Ca1 Bi2 O4,31.142857142857142,75.28571428571429,346.14285714285717,13.714285714285714,105.14285714285714,2.685714285714286,2.0,3.142857142857143,2.857142857142857,12.0,2.0,2.0,20.012857142857147,0.0,42.42857142857143
Ca(GdS2)2,2.55,Ca1 Gd2 S4,30.285714285714285,59.0,834.3485714285715,10.285714285714286,141.14285714285714,1.9600000000000002,2.0,2.2857142857142856,0.2857142857142857,6.571428571428571,1.1428571428571428,5.714285714285714,29.288214285714282,1.2582857142857142,127.57142857142857
Ca(LaS2)2,2.7,Ca1 La2 S4,28.285714285714285,55.0,722.0628571428572,10.285714285714286,144.28571428571428,1.9314285714285713,2.0,2.2857142857142856,0.2857142857142857,4.571428571428571,1.1428571428571428,3.7142857142857144,30.673214285714284,1.2582857142857142,127.57142857142857
Ca(NdS2)2,2.7,Ca1 Nd2 S4,29.142857142857142,56.714285714285715,750.9200000000001,10.285714285714286,142.57142857142858,1.9428571428571428,2.0,2.2857142857142856,0.0,5.428571428571429,1.1428571428571428,4.0,30.076785714285716,1.2582857142857142,127.57142857142857
Ca(PrS2)2,2.9,Ca1 Pr2 S4,28.857142857142858,56.142857142857146,725.2057142857144,10.285714285714286,143.14285714285714,1.94,2.0,2.2857142857142856,0.0,5.142857142857143,1.1428571428571428,4.285714285714286,30.32392857142857,1.2582857142857142,127.57142857142857
Ca(SmS2)2,2.05,Ca1 Sm2 S4,29.714285714285715,57.857142857142854,765.4914285714286,10.285714285714286,141.71428571428572,1.9514285714285715,2.0,2.2857142857142856,0.0,6.0,1.1428571428571428,3.4285714285714284,29.625357142857144,1.2582857142857142,119.57142857142857
Ca10Ge16(B2O17)3,5.47,Ca10 Ge16 B6 O51,13.855421686746988,74.73493975903614,571.2674698795181,13.710843373493976,90.96385542168674,2.769156626506024,2.0,2.9156626506024095,1.927710843373494,6.843373493975903,2.36144578313253,2.36144578313253,15.09843373493976,0.184,89.855421686747
Ca2Bi2O5,3.34,Ca2 Bi2 O5,27.333333333333332,69.0,399.20000000000005,12.666666666666666,108.66666666666667,2.582222222222222,2.0,2.888888888888889,2.2222222222222223,10.222222222222221,1.7777777777777777,1.7777777777777777,20.77388888888889,0.0,59.333333333333336
Ca2CdAs2,0.95,Ca2 Cd1 As2,30.8,50.4,1000.844,9.2,146.8,1.61,2.0,1.2,6.0,9.2,1.2,1.2,27.877000000000002,0.0,195.2
Ca2Ge,1.0,Ca2 Ge1,24.0,31.0,1147.1333333333334,6.0,157.33333333333334,1.3366666666666667,2.0,0.6666666666666666,3.3333333333333335,6.0,1.3333333333333333,1.3333333333333333,32.848333333333336,0.12766666666666668,225.0
Ca2ScSbO6,3.68,Ca2 Sc1 Sb1 O6,16.0,63.2,527.658,11.8,105.7,2.605,2.0,2.7,1.1,5.8,1.5,2.4,18.3965,0.0,88.2
Ca2Si,1.9,Ca2 Si1,18.0,30.666666666666668,1305.6666666666667,6.0,154.33333333333334,1.3,2.0,0.6666666666666666,0.0,2.6666666666666665,1.3333333333333333,1.3333333333333333,31.993333333333336,0.25766666666666665,225.66666666666666
Ca2SmTaO6,3.45,Ca2 Sm1 Ta1 O6,22.3,60.7,719.38,10.8,111.6,2.531,2.0,2.4,0.3,6.7,1.2,2.7,18.152,0.0,91.7
Ca2Sn,0.9,Ca2 Sn1,30.0,31.333333333333332,911.6933333333333,6.0,163.66666666666666,1.32,2.0,0.6666666666666666,3.3333333333333335,6.0,1.3333333333333333,1.3333333333333333,36.275,0.0,197.0
Ca2SnS4,2.32,Ca2 Sn1 S4,22.0,63.714285714285715,612.6457142857143,11.714285714285714,130.14285714285714,2.04,2.0,2.5714285714285716,1.4285714285714286,6.0,1.7142857142857142,1.7142857142857142,30.281785714285714,1.2582857142857142,124.42857142857143
Ca3Bi(PO4)3,4.2,Ca3 Bi1 P3 O12,14.947368421052632,73.6842105263158,289.4157894736842,13.578947368421053,94.15789473684211,2.7826315789473686,2.0,3.1578947368421053,0.5263157894736842,6.421052631578948,1.894736842105263,1.894736842105263,17.012142857136844,0.2565789473684211,44.05263157894737
Ca3La2(SnS4)3,1.45,Ca3 La2 Sn3 S12,25.8,67.15,595.328,12.3,130.95,2.102,2.0,2.7,1.6,6.3,1.8,2.7,29.820125,1.3212,116.3