composition,gap expt,composition_pmg,MagpieData mean Number,MagpieData mean MendeleevNumber,MagpieData mean MeltingT,MagpieData mean Column,MagpieData mean CovalentRadius,MagpieData mean Electronegativity,MagpieData mean NsValence,MagpieData mean NpValence,MagpieData mean NdValence,MagpieData mean NValence,MagpieData mean NpUnfilled,MagpieData mean NUnfilled,MagpieData mean GSvolume_pa,MagpieData mean GSbandgap,MagpieData mean SpaceGroupNumber
Zn0.99Ga0.01P0.01S0.99,3.7,Zn0.99 Ga0.01 P0.01 S0.99,23.0,78.5,538.21585,14.0,113.50999999999999,2.1138500000000002,2.0,2.0,5.0,9.0,1.03,1.03,19.881841815476,1.098115,131.01
Zn0.99Ga0.01P0.01Se0.99,2.6,Zn0.99 Ga0.01 P0.01 Se0.99,31.909999999999997,78.995,590.50765,14.0,120.935,2.0989999999999998,2.0,2.0,9.95,13.95,1.03,1.03,19.947738690476,0.40363,103.28999999999999
Zn0.99Ga0.01Sb0.01Te0.99,2.1,Zn0.99 Ga0.01 Sb0.01 Te0.99,41.0,79.5,706.6267499999999,14.0,130.005,1.87555,2.0,2.0,10.0,14.0,1.03,1.03,24.3701374999835,0.22968000000000002,172.42
Zn0.99Hg0.01Se1,2.6,Zn0.99 Hg0.01 Se1,32.25,79.00999999999999,591.0482,14.0,121.05,2.10175,2.0,2.0,10.0,14.07,1.0,1.0,19.9963879310345,0.3995,103.86
Zn0.9Ga0.1As0.1Se0.9,2.34,Zn0.9 Ga0.1 As0.1 Se0.9,32.0,79.0,603.6514999999999,14.0,120.95,2.0895,2.0,2.0,10.0,14.0,1.3,1.3,19.997625000000003,0.35955000000000004,105.1
Zn0.9Ga0.1P0.1S0.9,2.8,Zn0.9 Ga0.1 P0.1 S0.9,23.0,78.5,517.4784999999999,14.0,113.6,2.1035,2.0,2.0,5.0,9.0,1.3,1.3,19.957480654759998,1.07215,122.1
Zn0.9Ga0.1P0.1Se0.9,2.3,Zn0.9 Ga0.1 P0.1 Se0.9,31.1,78.95,565.0165,14.0,120.35,2.09,2.0,2.0,9.5,13.5,1.3,1.3,20.017386904760002,0.4408,96.89999999999999
Zn0.9Hg0.1Se1,1.75,Zn0.9 Hg0.1 Se1,34.5,79.1,570.422,14.0,121.5,2.1174999999999997,2.0,2.0,10.0,14.7,1.0,1.0,20.503879310345003,0.3995,102.6
Zn0.9Hg0.1Te1,1.74,Zn0.9 Hg0.1 Te1,43.5,79.6,684.752,14.0,130.5,1.8925,2.0,2.0,10.0,14.7,1.0,1.0,24.925545976995,0.232,171.6
Zn2InCuSe4,1.1,Zn2 In1 Cu1 Se4,34.25,79.125,643.61,14.0,124.75,2.1475,1.875,2.125,10.0,14.0,1.625,1.75,20.86625,0.3995,101.0
Zn2InCuTe4,1.05,Zn2 In1 Cu1 Te4,43.25,79.625,757.94,14.0,133.75,1.9225,1.875,2.125,10.0,14.0,1.625,1.75,25.28791666665,0.232,170.0
Zn2MoSeO7,4.2,Zn2 Mo1 Se1 O7,17.454545454545453,80.54545454545455,468.99636363636364,14.363636363636363,89.0909090909091,2.917272727272727,1.9090909090909092,2.909090909090909,3.1818181818181817,8.0,1.4545454545454546,2.0,12.114999999999998,0.07263636363636364,65.0
Zn2TeMoO7,4.1,Zn2 Te1 Mo1 O7,19.09090909090909,80.63636363636364,489.78363636363645,14.363636363636363,90.72727272727273,2.8763636363636365,1.9090909090909092,2.909090909090909,3.1818181818181817,8.0,1.4545454545454546,2.0,12.918939393936363,0.04218181818181818,77.54545454545455
Zn3(BO3)2,2.6,Zn3 B2 O6,13.454545454545455,79.36363636363636,645.7127272727273,14.363636363636363,84.54545454545455,2.6972727272727273,2.0,2.3636363636363638,2.727272727272727,7.090909090909091,2.0,2.0,10.077727272727273,0.2770909090909091,89.63636363636364
Zn3(PS4)2,3.07,Zn3 P2 S8,19.076923076923077,82.84615384615384,447.65538461538466,14.923076923076923,109.23076923076923,2.3053846153846154,2.0,2.923076923076923,2.3076923076923075,7.230769230769231,1.6923076923076923,1.6923076923076923,22.562728937723076,1.605076923076923,88.15384615384616
Zn3.5Ga1Sn0.5O6,2.99,Zn3.5 Ga1 Sn0.5 O6,19.0,79.77272727272727,300.78454545454537,14.363636363636363,92.22727272727273,2.655,2.0,2.3636363636363638,4.545454545454546,8.909090909090908,1.7272727272727273,1.7272727272727273,12.635454545454547,0.0,80.5
Zn3P2,1.15,Zn3 P2,24.0,74.6,542.528,13.2,116.0,1.8659999999999997,2.0,1.2,6.0,9.2,1.2,1.2,17.40409523808,0.65,117.2
Zn4.5Ga1Sn0.5O7,3.0,Zn4.5 Ga1 Sn0.5 O7,19.0,79.5,312.0084615384615,14.307692307692308,92.5,2.638076923076923,2.0,2.3076923076923075,4.615384615384615,8.923076923076923,1.6153846153846154,1.6153846153846154,12.465769230769231,0.0,83.96153846153847
Zn5.5Ga1Sn0.5O8,2.99,Zn5.5 Ga1 Sn0.5 O8,19.0,79.3,320.23933333333326,14.266666666666667,92.7,2.6256666666666666,2.0,2.2666666666666666,4.666666666666667,8.933333333333334,1.5333333333333334,1.5333333333333334,12.341333333333333,0.0,86.5
Zn6S5Cl2,2.71,Zn6 S5 Cl2,22.615384615384617,80.15384615384616,495.4676923076923,14.307692307692308,112.38461538461539,2.2399999999999998,2.0,2.3076923076923075,4.615384615384615,8.923076923076923,0.9230769230769231,0.9230769230769231,20.129951923076923,1.2304615384615383,126.3076923076923
ZnAs,0.9,Zn1 As1,31.5,76.5,891.3399999999999,13.5,120.5,1.915,2.0,1.5,10.0,13.5,1.5,1.5,18.067500000000003,0.0,180.0
ZnB12(H5O12)2,4.6,Zn1 B12 H10 O24,6.212765957446808,83.85106382978724,645.1910638297873,11.957446808510639,64.34042553191489,2.7806382978723403,1.7872340425531914,2.297872340425532,0.2127659574468085,4.297872340425532,2.297872340425532,2.5106382978723403,8.185106382978724,2.0599574468085105,93.91489361702128
ZnCu2GeS4,2.1,Zn1 Cu2 Ge1 S4,23.0,78.5,771.6324999999999,14.0,115.75,2.2225,1.75,2.25,5.0,9.0,1.5,1.75,20.2815625,1.1488749999999999,143.625
ZnCu2GeSe4,1.63,Zn1 Cu2 Ge1 Se4,32.0,79.0,824.4525,14.0,123.25,2.2074999999999996,1.75,2.25,10.0,14.0,1.5,1.75,20.348125000000003,0.447375,115.625
ZnCu2SiSe4,2.33,Zn1 Cu2 Si1 Se4,29.75,78.875,883.9024999999999,14.0,122.125,2.1937499999999996,1.75,2.25,8.75,12.75,1.5,1.75,20.027500000000003,0.49612500000000004,115.875
ZnCu2SiTe4,1.47,Zn1 Cu2 Si1 Te4,38.75,79.375,998.2324999999998,14.0,131.125,1.96875,1.75,2.25,8.75,12.75,1.5,1.75,24.44916666665,0.328625,184.875
ZnCu2SnSe4,1.44,Zn1 Cu2 Sn1 Se4,34.25,79.125,736.1624999999999,14.0,125.625,2.20125,1.75,2.25,10.0,14.0,1.5,1.75,21.633125,0.3995,105.125
ZnCu2SnTe4,1.39,Zn1 Cu2 Sn1 Te4,43.25,79.625,850.4925,14.0,134.625,1.9762499999999998,1.75,2.25,10.0,14.0,1.5,1.75,26.054791666649997,0.232,174.125
ZnHg3(SCl2)2,2.65,Zn1 Hg3 S2 Cl4,37.0,83.4,285.876,14.8,113.6,2.5450000000000004,2.0,2.8,4.0,13.0,0.8,0.8,23.923650862069998,1.4376,108.8
ZnHg3(SeCl2)2,2.23,Zn1 Hg3 Se2 Cl4,40.6,83.6,307.004,14.8,116.6,2.539,2.0,2.8,6.0,15.0,0.8,0.8,23.950275862069997,1.157,97.6
ZnI2,4.53,Zn1 I2,45.333333333333336,87.0,488.79333333333335,15.333333333333334,133.33333333333334,2.3233333333333337,2.0,3.3333333333333335,10.0,15.333333333333334,0.6666666666666666,0.6666666666666666,33.330000000000005,0.7080000000000001,107.33333333333333
ZnSb,1.05,Zn1 Sb1,40.5,77.0,798.23,13.5,130.5,1.8499999999999999,2.0,1.5,10.0,13.5,1.5,1.5,22.759999999999998,0.0,180.0
ZnSb2MoO7,3.3,Zn1 Sb2 Mo1 O7,20.90909090909091,81.63636363636364,525.44,14.545454545454545,92.36363636363636,2.908181818181818,1.9090909090909092,3.090909090909091,3.1818181818181817,8.181818181818182,1.8181818181818181,2.3636363636363638,14.227727272727272,0.0,76.27272727272727
ZnSi(AgS2)2,3.28,Zn1 Si1 Ag2 S4,25.25,78.625,800.3725,14.0,117.875,2.21625,1.75,2.25,3.75,7.75,1.5,1.75,21.275937499999998,1.197625,143.875
ZnSiAs2,2.12,Zn1 Si1 As2,27.5,78.75,1139.92,14.0,117.75,1.9775,2.0,2.0,7.5,11.5,2.5,2.5,19.6875,0.19325,188.25
ZnSiP2,2.07,Zn1 Si1 P2,18.5,78.25,753.5699999999999,14.0,111.75,1.9825,2.0,2.0,2.5,6.5,2.5,2.5,19.8851190476,1.00575,106.25
ZnSnO3,3.9,Zn1 Sn1 O3,20.8,82.0,272.43199999999996,14.8,91.8,2.786,2.0,2.8,4.0,8.8,2.0,2.0,14.912,0.0,74.2
ZnTc,2.37,Zn1 Tc1,36.5,61.0,1561.34,9.5,134.5,1.775,2.0,0.0,7.5,9.5,0.0,2.5,14.1225,0.0,194.0
Zr0.67Ta1.33N3.03O0.12,1.71,Zr0.67 Ta1.33 N3.03 O0.12,28.361165048543693,68.39223300970873,1164.8694174757284,11.009708737864077,109.98058252427185,2.4291456310679616,2.0,1.8582524271844663,1.0349514563106796,8.508737864077672,1.8116504854368933,4.660194174757282,16.598478155339812,3.7872058252427188,198.79805825242718
Zr1.33Ta0.67N1.63O1.89,2.48,Zr1.33 Ta0.67 N1.63 O1.89,23.30434782608696,70.42934782608695,949.4354166666669,11.478260869565219,106.36231884057972,2.5780253623188405,2.0,2.255434782608696,0.8460144927536233,6.80072463768116,1.5706521739130437,4.347826086956522,15.266533061594204,1.9007807971014494,135.93297101449278
Zr1.33Ta0.67N1.97O1.38,2.31,Zr1.33 Ta0.67 N1.97 O1.38,23.72710280373832,69.58504672897196,978.3873831775702,11.271028037383179,107.96261682242992,2.5252149532710284,2.0,2.1364485981308414,0.8728971962616823,6.762616822429907,1.6205607476635515,4.4859813084112155,15.822259345794393,2.3702598130841124,151.43738317757013
Zr1.33Ta0.67N2.61O0.42,1.93,Zr1.33 Ta0.67 N2.61 O0.42,24.60039761431412,67.84095427435389,1038.194135188867,10.842942345924454,111.26838966202786,2.4161232604373764,2.0,1.8906560636182905,0.9284294234592446,6.683896620278332,1.723658051689861,4.771371769383699,16.97023608349901,3.340073558648112,183.4652087475149
Zr1.86Cu1S4,1.26,Zr1.86 Cu1 S4,24.402332361516034,72.57142857142857,1001.3542274052479,12.017492711370261,127.91545189504373,2.1419533527696792,1.8542274052478134,2.332361516034985,2.0,6.186588921282798,1.1661807580174925,3.481049562682216,22.93880466472303,1.2839650145772594,126.21574344023324
Zr3O,0.2,Zr3 O1,32.0,54.75,1609.7,7.0,147.75,1.8575,2.0,1.0,1.5,4.5,0.5,6.5,19.672500000000003,0.0,148.5
Zr6O,0.18,Zr6 O1,35.42857142857143,50.142857142857146,1831.8285714285714,5.714285714285714,159.42857142857142,1.6314285714285715,2.0,0.5714285714285714,1.7142857142857142,4.285714285714286,0.2857142857142857,7.142857142857143,21.182142857142857,0.0,168.0
ZrC,0.6,Zr1 C1,23.0,60.5,2975.5,9.0,125.5,1.94,2.0,1.0,1.0,4.0,2.0,6.0,14.4175,2.248,194.0
ZrHg4(AsCl3)2,2.48,Zr1 Hg4 As2 Cl6,40.61538461538461,81.53846153846153,482.68307692307684,14.153846153846153,119.46153846153847,2.511538461538462,2.0,2.769230769230769,4.769230769230769,13.846153846153847,0.9230769230769231,1.5384615384615385,24.267718832892307,1.1506153846153846,121.07692307692308
ZrHg4(PCl3)2,3.22,Zr1 Hg4 P2 Cl6,37.84615384615385,81.38461538461539,363.8061538461538,14.153846153846153,117.61538461538461,2.513076923076923,2.0,2.769230769230769,3.230769230769231,12.307692307692308,0.9230769230769231,1.5384615384615385,24.32852469369231,1.4006153846153846,95.84615384615384
ZrNiSb,0.55,Zr1 Ni1 Sb1,39.666666666666664,63.333333333333336,1586.5933333333332,9.666666666666666,146.0,1.7633333333333334,2.0,1.0,6.666666666666667,9.666666666666666,1.0,4.333333333333333,21.691666666666666,0.0,195.0
ZrO2,4.99,Zr1 O2,18.666666666666668,72.66666666666667,745.8666666666667,12.0,102.33333333333333,2.736666666666667,2.0,2.6666666666666665,0.6666666666666666,5.333333333333333,1.3333333333333333,4.0,13.801666666666668,0.0,72.66666666666667
ZrS2,2.75,Zr1 S2,24.0,73.33333333333333,968.2400000000001,12.0,128.33333333333334,2.1633333333333336,2.0,2.6666666666666665,0.6666666666666666,5.333333333333333,1.3333333333333333,4.0,24.922916666666666,1.468,111.33333333333333
ZrSe2,2.0,Zr1 Se2,36.0,74.0,1038.6666666666667,12.0,138.33333333333334,2.143333333333333,2.0,2.6666666666666665,7.333333333333333,12.0,1.3333333333333333,4.0,25.011666666666667,0.5326666666666667,74.0
ZrTaN3,1.72,Zr1 Ta1 N3,26.8,67.6,1121.4299999999998,10.8,111.6,2.39,2.0,1.8,1.0,7.6,1.8,4.8,17.12425,3.8622,201.0