composition,gap expt,composition_pmg,MagpieData mean Number,MagpieData mean MendeleevNumber,MagpieData mean MeltingT,MagpieData mean Column,MagpieData mean CovalentRadius,MagpieData mean Electronegativity,MagpieData mean NsValence,MagpieData mean NpValence,MagpieData mean NdValence,MagpieData mean NValence,MagpieData mean NpUnfilled,MagpieData mean NUnfilled,MagpieData mean GSvolume_pa,MagpieData mean GSbandgap,MagpieData mean SpaceGroupNumber
K6Yb3(PS4)5,2.6,K6 Yb3 P5 S20,21.147058823529413,67.94117647058823,430.8494117647059,12.058823529411764,129.8235294117647,2.0955882352941178,1.8235294117647058,2.7941176470588234,0.0,5.852941176470588,1.6176470588235294,1.7941176470588236,34.39966736694706,1.5342647058823529,101.73529411764706
K8Ce2I18O53,2.34,K8 Ce2 I18 O53,20.320987654320987,78.92592592592592,181.50543209876543,14.419753086419753,99.1604938271605,2.950617283950617,1.9012345679012346,3.728395061728395,2.246913580246914,7.901234567901234,1.5308641975308641,2.1728395061728394,23.656399176958026,0.236,49.48148148148148
K9Bi13S24,1.4,K9 Bi13 S24,35.52173913043478,70.80434782608695,422.3176086956522,12.782608695652174,136.32608695652175,2.077391304347826,1.8043478260869565,2.9347826086956523,2.8260869565217392,11.521739130434783,1.891304347826087,2.0869565217391304,37.06945652174566,1.1488695652173913,84.71739130434783
KAg2AsS3,2.25,K1 Ag2 As1 S3,27.714285714285715,68.71428571428571,723.0671428571429,12.285714285714286,132.42857142857142,2.085714285714286,1.5714285714285714,2.142857142857143,4.285714285714286,8.0,1.2857142857142858,1.7142857142857142,29.32889880952857,0.9437142857142857,150.71428571428572
KAg2PS4,3.02,K1 Ag2 P1 S4,24.0,71.0,584.6412500000001,12.75,127.5,2.1487499999999997,1.625,2.375,2.5,6.5,1.375,1.75,28.9355505952375,1.304125,120.125
KAg2SbS3,2.1,K1 Ag2 Sb1 S3,30.285714285714285,68.85714285714286,696.4642857142857,12.285714285714286,135.28571428571428,2.067142857142857,1.5714285714285714,2.142857142857143,4.285714285714286,8.0,1.2857142857142858,1.7142857142857142,30.669613095242855,0.9437142857142857,150.71428571428572
KAg2SbS4,2.2,K1 Ag2 Sb1 S4,28.5,71.25,657.9512500000001,12.75,131.5,2.13125,1.625,2.375,3.75,7.75,1.375,1.75,30.0592708333375,1.101,140.625
KAgAsS2,2.21,K1 Ag1 As1 S2,26.2,65.6,687.6360000000001,11.8,135.4,2.018,1.6,2.2,4.0,7.8,1.4,1.8,32.637083333339994,0.8808,152.0
KAlGeS4,3.5,K1 Al1 Ge1 S4,18.285714285714285,72.42857142857143,576.4057142857143,13.142857142857142,123.42857142857143,2.1085714285714285,1.8571428571428572,2.7142857142857144,1.4285714285714286,6.0,2.4285714285714284,2.5714285714285716,30.819880952385713,1.313,137.0
KAsSe2,1.62,K1 As1 Se2,30.0,66.25,603.6324999999999,12.0,140.5,2.025,1.75,2.75,7.5,12.0,1.75,2.0,36.780416666674995,0.3995,105.75
KAu(IO3)4,2.75,K1 Au1 I4 O12,22.555555555555557,83.16666666666667,215.49222222222224,15.11111111111111,93.72222222222223,3.071111111111111,1.8888888888888888,3.7777777777777777,2.7777777777777777,9.222222222222221,1.5555555555555556,1.6666666666666667,20.61814814815,0.23600000000000002,47.44444444444444
KB5PbO9,3.1,K1 B5 Pb1 O9,12.375,76.6875,823.1462500000001,14.0,85.1875,2.769375,1.9375,2.6875,0.625,6.125,2.9375,3.0,13.68901041666875,0.47625,87.0
KBaAsSe3,2.26,K1 Ba1 As1 Se3,35.0,60.5,651.4216666666666,11.0,149.5,1.9233333333333331,1.8333333333333333,2.5,6.666666666666667,11.0,1.5,1.6666666666666667,39.43861111111667,0.3995,111.0
KBaB5O9,3.65,K1 Ba1 B5 O9,10.75,72.1875,848.1081250000001,13.25,89.5,2.6793750000000003,1.9375,2.5625,0.0,4.5,2.6875,2.75,15.906510416668752,0.47625,87.25
KBaSbSe3,2.04,K1 Ba1 Sb1 Se3,38.0,60.666666666666664,620.385,11.0,152.83333333333334,1.9016666666666666,1.8333333333333333,2.5,6.666666666666667,11.0,1.5,1.6666666666666667,41.002777777783336,0.3995,111.0
KBi3S5,1.21,K1 Bi3 S5,38.666666666666664,77.88888888888889,434.6144444444444,14.0,130.22222222222223,2.197777777777778,1.8888888888888888,3.2222222222222223,3.3333333333333335,13.11111111111111,2.111111111111111,2.2222222222222223,33.43233796296667,1.2233333333333334,68.33333333333333
KBiS2,0.86,K1 Bi1 S2,33.5,66.25,414.4125,12.0,140.25,2.0,1.75,2.75,2.5,10.5,1.75,2.0,39.407604166675,1.101,95.25
KBiSe2,0.61,K1 Bi1 Se2,42.5,66.75,467.23249999999996,12.0,147.75,1.9849999999999999,1.75,2.75,7.5,15.5,1.75,2.0,39.474166666675,0.3995,67.25
KBr,7.6,K1 Br1,27.0,49.0,301.16499999999996,9.0,161.5,1.89,1.5,2.5,5.0,9.0,0.5,1.0,51.29333333335,0.7285,146.5
KCd4Ga5Se12,2.16,K1 Cd4 Ga5 Se12,35.18181818181818,78.22727272727273,461.6345454545454,13.909090909090908,128.5909090909091,2.146818181818182,1.9545454545454546,2.409090909090909,9.545454545454545,13.909090909090908,2.227272727272727,2.272727272727273,25.291553030304552,0.4358181818181819,67.86363636363636
KCeSe4,1.54,K1 Ce1 Se4,35.5,62.333333333333336,563.9216666666666,11.333333333333334,147.83333333333334,2.023333333333333,1.8333333333333333,2.6666666666666665,6.833333333333333,11.5,1.3333333333333333,5.166666666666667,35.671111111116666,0.5326666666666667,79.83333333333333
KCl,8.5,K1 Cl1,18.0,48.5,254.065,9.0,152.5,1.99,1.5,2.5,0.0,4.0,0.5,1.0,48.80208333335,1.2465,146.5
KCu2BiS3,1.29,K1 Cu2 Bi1 S3,29.714285714285715,68.71428571428571,680.2214285714284,12.285714285714286,132.85714285714286,2.0542857142857143,1.5714285714285714,2.142857142857143,4.285714285714286,10.0,1.2857142857142858,1.7142857142857142,29.365327380957144,0.9437142857142857,128.71428571428572
KCu3S2,1.46,K1 Cu3 S2,23.0,61.833333333333336,864.4266666666667,11.0,134.83333333333334,1.9466666666666665,1.3333333333333333,1.3333333333333333,5.0,7.666666666666667,0.6666666666666666,1.3333333333333333,26.31506944445,0.734,174.0
KCu4AsS4,1.9,K1 Cu4 As1 S4,23.2,69.5,841.1049999999999,12.4,127.0,2.092,1.5,1.9,5.0,8.4,1.1,1.6,24.27091666667,0.8808,157.5
KCuSnS3,1.47,K1 Cu1 Sn1 S3,24.333333333333332,68.5,560.7433333333333,12.333333333333334,131.5,2.07,1.6666666666666667,2.3333333333333335,3.3333333333333335,7.333333333333333,1.6666666666666667,2.0,32.47038194445,1.101,134.16666666666666
KCuSnSe3,1.04,K1 Cu1 Sn1 Se3,33.333333333333336,69.0,613.5633333333334,12.333333333333334,139.0,2.0549999999999997,1.6666666666666667,2.3333333333333335,8.333333333333334,12.333333333333334,1.6666666666666667,2.0,32.53694444445,0.3995,106.16666666666667
KEuAsS4,1.89,K1 Eu1 As1 S4,25.571428571428573,66.28571428571429,582.1385714285714,11.857142857142858,134.28571428571428,2.072142857142857,1.8571428571428572,2.7142857142857144,1.4285714285714286,7.0,1.5714285714285714,2.7142857142857144,33.555595238100004,1.2582857142857142,129.14285714285714
KF,10.3,K1 F1,14.0,48.0,195.015,9.0,130.0,2.4,1.5,2.5,0.0,4.0,0.5,1.0,41.407083333349995,0.985,122.0
KFe2BiO5,1.76,K1 Fe2 Bi1 O5,21.555555555555557,70.44444444444444,530.77,12.444444444444445,105.0,2.6333333333333333,1.8888888888888888,2.5555555555555554,2.4444444444444446,8.444444444444445,1.4444444444444444,2.4444444444444446,19.226851851855557,0.0,84.33333333333333
KFeCuTe2,1.06,K1 Fe1 Cu1 Te2,35.6,60.4,990.124,10.4,148.6,1.75,1.6,1.6,7.2,10.4,0.8,2.0,32.88666666666,0.18560000000000001,197.4
KGaSe2,2.6,K1 Ga1 Se2,29.5,63.75,406.86,11.5,141.25,1.9324999999999999,1.75,2.25,7.5,11.5,2.25,2.5,35.951041666674996,0.3995,80.25
KGaSnSe4,1.73,K1 Ga1 Sn1 Se4,33.714285714285715,73.28571428571429,445.7885714285714,13.142857142857142,134.85714285714286,2.1128571428571425,1.8571428571428572,2.7142857142857144,8.571428571428571,13.142857142857142,2.4285714285714284,2.5714285714285716,32.704166666671426,0.4565714285714286,70.0
KIn(TeO3)2,4.0,K1 In1 Te2 O6,22.0,78.0,254.03999999999996,14.2,101.7,2.744,1.9,3.3,3.0,8.2,2.1,2.2,22.15233333333,0.09280000000000001,74.4
KInGeS4,3.1,K1 In1 Ge1 S4,23.428571428571427,72.71428571428571,504.44571428571425,13.142857142857142,126.42857142857143,2.132857142857143,1.8571428571428572,2.7142857142857144,2.857142857142857,7.428571428571429,2.4285714285714284,2.5714285714285716,31.931309523814285,1.313,124.71428571428571
KInS2,3.0,K1 In1 S2,25.0,63.5,385.75,11.5,138.75,1.94,1.75,2.25,2.5,6.5,2.25,2.5,37.235104166675,1.101,127.0
KInSe2,2.68,K1 In1 Se2,34.0,64.0,438.57,11.5,146.25,1.9249999999999998,1.75,2.25,7.5,11.5,2.25,2.5,37.301666666675004,0.3995,99.0
KInSnS4,2.3,K1 In1 Sn1 S4,26.0,72.85714285714286,403.54285714285714,13.142857142857142,129.14285714285714,2.125714285714286,1.8571428571428572,2.7142857142857144,2.857142857142857,7.428571428571429,2.4285714285714284,2.5714285714285716,33.399880952385715,1.2582857142857142,112.71428571428571
KLiCO3,6.32,K1 Li1 C1 O3,8.666666666666666,57.0,796.27,10.666666666666666,100.83333333333333,2.445,1.6666666666666667,2.3333333333333335,0.0,4.0,1.6666666666666667,2.0,20.4425,0.7493333333333334,114.66666666666667
KNb3(SeO6)2,3.46,K1 Nb3 Se2 O12,17.0,75.88888888888889,568.4516666666667,13.333333333333334,95.94444444444444,2.888888888888889,1.7777777777777777,3.111111111111111,1.7777777777777777,6.666666666666667,1.5555555555555556,2.7777777777777777,16.04148148148333,0.08877777777777779,60.44444444444444
KNb3(TeO6)2,3.52,K1 Nb3 Te2 O12,19.0,76.0,593.8583333333333,13.333333333333334,97.94444444444444,2.838888888888889,1.7777777777777777,3.111111111111111,1.7777777777777777,6.666666666666667,1.5555555555555556,2.7777777777777777,17.02407407407222,0.051555555555555556,75.77777777777777
KNbSe2O7,4.0,K1 Nb1 Se2 O7,16.727272727272727,76.0909090909091,405.2845454545455,13.636363636363637,97.18181818181819,2.8727272727272726,1.8181818181818181,3.272727272727273,2.1818181818181817,7.2727272727272725,1.6363636363636365,2.3636363636363638,18.80560606060909,0.14527272727272728,51.81818181818182
KP(HO2)2,6.95,K1 P1 H2 O4,8.5,77.25,112.63125,10.25,79.5,2.64625,1.625,2.375,0.0,4.0,1.375,1.75,18.165863095237498,2.166375,83.375
KPAu5S8,2.14,K1 P1 Au5 S8,37.13333333333333,74.66666666666667,696.4906666666667,13.266666666666667,122.0,2.4233333333333333,1.6,2.3333333333333335,3.3333333333333335,11.933333333333334,1.2666666666666666,1.6666666666666667,25.698126984126663,1.2827333333333333,127.73333333333333
KPPbO4,4.44,K1 P1 Pb1 O4,21.142857142857142,73.57142857142857,210.52,13.428571428571429,102.85714285714286,2.7285714285714286,1.8571428571428572,3.0,1.4285714285714286,8.285714285714286,2.142857142857143,2.2857142857142856,22.886700680271424,0.23214285714285715,72.0
KPSe3,2.08,K1 P1 Se3,27.2,70.6,427.166,12.8,134.0,2.132,1.8,3.0,6.0,10.8,1.8,2.0,34.687380952379996,0.8044,54.6
KPSe6,2.16,K1 P1 Se6,29.75,77.5,452.22875,14.0,128.75,2.28875,1.875,3.375,7.5,12.75,1.875,2.0,31.3996130952375,0.8023750000000001,39.375
KRbBi8Se13,0.64,K1 Rb1 Bi8 Se13,50.52173913043478,80.52173913043478,496.79086956521735,14.347826086956522,137.69565217391303,2.215217391304348,1.9130434782608696,3.3043478260869565,9.130434782608695,19.217391304347824,2.1739130434782608,2.260869565217391,33.23431159420435,0.45160869565217393,32.0
KSb,0.9,K1 Sb1,35.0,44.0,620.155,8.0,171.0,1.4349999999999998,1.5,1.5,5.0,8.0,1.5,2.0,52.33333333335,0.0,197.5
KSb(SO4)2,4.64,K1 Sb1 S2 O8,13.833333333333334,80.0,204.61916666666664,14.666666666666666,90.0,2.9625,1.9166666666666667,3.5833333333333335,0.8333333333333334,6.333333333333333,1.9166666666666667,2.0,19.090034722225,0.367,52.583333333333336
KSc(SeO3)2,5.4,K1 Sc1 Se2 O6,15.6,71.4,346.733,13.2,100.9,2.7920000000000003,1.9,3.2,2.1,7.2,1.6,2.6,20.18116666667,0.1598,52.3
KSi2P3,1.72,K1 Si2 P3,15.333333333333334,68.0,777.0716666666667,12.333333333333334,124.33333333333333,1.8650000000000002,1.8333333333333333,2.1666666666666665,0.0,4.0,2.8333333333333335,3.0,30.282896825383332,1.0701666666666667,114.83333333333333
KSiBiS4,2.25,K1 Si1 Bi1 S4,25.714285714285715,74.14285714285714,588.7671428571429,13.428571428571429,126.0,2.1514285714285717,1.8571428571428572,3.0,1.4285714285714286,8.285714285714286,2.142857142857143,2.2857142857142856,32.806309523814285,1.3687142857142856,106.85714285714286
KSm2CuS4,2.17,K1 Sm2 Cu1 S4,29.5,58.125,742.2175,10.25,143.875,1.9224999999999999,1.75,2.0,1.25,6.5,1.0,3.25,31.723020833337493,1.101,133.25
KSnAuS3,2.3,K1 Sn1 Au1 S3,32.666666666666664,68.83333333333333,557.3366666666666,12.333333333333334,132.16666666666666,2.1766666666666667,1.6666666666666667,2.3333333333333335,3.3333333333333335,9.666666666666666,1.6666666666666667,2.0,33.40871527778333,1.101,134.16666666666666
KSnAuSe3,2.28,K1 Sn1 Au1 Se3,41.666666666666664,69.33333333333333,610.1566666666666,12.333333333333334,139.66666666666666,2.1616666666666666,1.6666666666666667,2.3333333333333335,8.333333333333334,14.666666666666666,1.6666666666666667,2.0,33.47527777778333,0.3995,106.16666666666667
KTa3(TeO6)2,4.06,K1 Ta3 Te2 O12,24.333333333333332,76.16666666666667,683.8583333333333,13.333333333333334,98.94444444444444,2.822222222222222,1.9444444444444444,3.111111111111111,1.6111111111111112,9.0,1.5555555555555556,2.7777777777777777,17.01407407407222,0.051555555555555556,75.77777777777777
KTaO3,3.5,K1 Ta1 O3,23.2,62.4,758.1859999999999,10.8,114.2,2.528,1.8,2.4,0.6,7.6,1.2,2.8,23.70833333334,0.0,98.8
KTbSe4,1.65,K1 Tb1 Se4,36.666666666666664,64.66666666666667,656.9216666666666,11.333333333333334,146.16666666666666,2.038333333333333,1.8333333333333333,2.6666666666666665,6.666666666666667,12.666666666666666,1.3333333333333333,2.3333333333333335,34.7538888889,0.5326666666666667,79.83333333333333
KTeP2,1.4,K1 Te1 P2,25.25,64.75,423.4475,11.75,138.75,1.825,1.75,2.5,2.5,6.75,2.0,2.25,38.2526190476,0.9285,96.25
KThCuS3,2.95,K1 Th1 Cu1 S3,31.0,57.833333333333336,813.7299999999999,10.5,142.66666666666666,1.96,1.6666666666666667,2.0,2.0,5.666666666666667,1.0,2.6666666666666665,32.31788194445,1.101,148.16666666666666
KTi2F7,6.4,K1 Ti2 F7,12.6,74.0,459.303,12.8,92.2,3.1759999999999997,1.9,3.5,0.4,5.8,0.7,2.4,17.44391666667,1.379,72.2
KUClO3,2.37,K1 U1 Cl1 O3,25.333333333333332,63.0,346.75499999999994,11.5,116.5,2.6133333333333333,1.8333333333333333,2.8333333333333335,0.16666666666666666,5.333333333333333,1.1666666666666667,4.666666666666667,24.157361111116668,0.4155,65.33333333333333
KV2I3O13,2.3,K1 V2 I3 O13,17.263157894736842,79.6842105263158,346.0778947368421,14.210526315789474,93.89473684210526,2.988421052631579,1.9473684210526316,3.526315789473684,1.894736842105263,7.368421052631579,1.5263157894736843,2.3157894736842106,18.238771929826317,0.1676842105263158,54.473684210526315
KV4Ag11O16,2.0,K1 V4 Ag11 O16,23.625,71.6875,735.29875,12.4375,108.3125,2.6128125,1.625,2.0,3.8125,7.4375,1.0,2.25,14.076770833334374,0.0,119.125
KY(TeO3)2,3.8,K1 Y1 Te2 O6,21.0,71.7,390.965,13.2,106.5,2.688,1.9,3.2,2.1,7.2,1.6,2.6,22.96283333333,0.09280000000000001,79.9
KZn4(BO3)3,2.32,K1 Zn4 B3 O9,13.294117647058824,75.17647058823529,626.1441176470589,13.647058823529411,90.41176470588235,2.6176470588235294,1.9411764705882353,2.2941176470588234,2.3529411764705883,6.588235294117647,1.9411764705882353,2.0,13.671127450982354,0.26894117647058824,94.76470588235294
KZrPSe6,2.0,K1 Zr1 P1 Se6,30.88888888888889,73.77777777777777,638.4255555555555,12.88888888888889,133.88888888888889,2.1822222222222223,1.8888888888888888,3.0,6.888888888888889,11.777777777777779,1.6666666666666667,2.6666666666666665,30.487989417988885,0.7132222222222223,56.55555555555556
La(InS2)3,1.03,La1 In3 S6,30.0,76.6,481.241,13.8,126.3,2.192,2.0,2.7,3.1,7.8,2.7,3.6,26.439875,1.3212,103.1
La1.86Tb1.14Ga1.67S7,2.67,La1.86 Tb1.14 Ga1.67 S7,29.467866323907455,68.27934875749786,625.5715252784919,12.228791773778921,132.38389031705228,2.100094258783205,2.0,2.5424164524421595,1.590402742073693,7.011996572407884,1.9151670951156814,3.8380462724935733,27.147326478152355,1.320822622107969,101.01799485861183
La10Se14O,2.04,La10 Se14 O1,42.16,58.52,756.0319999999999,10.8,152.64,2.0056,2.0,2.4,6.0,10.4,1.2,4.8,29.6384,0.44744,85.92
La1Se0.14S1.86,2.5,La1 Se0.14 S1.86,30.506666666666664,63.046666666666674,661.5032,11.666666666666666,139.70000000000002,2.0852666666666666,2.0,2.6666666666666665,0.8000000000000002,5.466666666666666,1.3333333333333333,4.333333333333333,29.49662916666667,1.4025266666666667,108.72000000000001
La2.1Bi5.9Pb2S14,1.0,La2.1 Bi5.9 Pb2 S14,41.55833333333334,80.3625,514.8133333333334,14.450000000000001,127.91250000000001,2.2920000000000003,2.0,3.2375000000000003,3.3791666666666664,13.225000000000001,2.2375000000000003,3.0250000000000004,28.713583333333332,1.2845,79.50833333333334
La20Mo12Cl4O63,2.4,La20 Mo12 Cl4 O63,22.383838383838384,67.84848484848484,633.8464646464647,12.202020202020202,106.60606060606061,2.8008080808080806,1.878787878787879,2.7474747474747474,0.8080808080808081,5.434343434343434,1.3131313131313131,3.8585858585858586,16.139747474747477,0.10072727272727272,77.17171717171718
La2Fe(SeO)2,0.7,La2 Fe1 Se2 O2,32.0,61.857142857142854,756.3714285714286,11.142857142857142,131.14285714285714,2.287142857142857,2.0,2.2857142857142856,4.0,8.285714285714286,1.1428571428571428,4.285714285714286,22.08214285714286,0.2282857142857143,95.57142857142857
La2Ga0.33Sb1S5,1.76,La2 Ga0.33 Sb1 S5,30.639855942376954,69.078031212485,640.0408523409365,12.63985594237695,134.24489795918367,2.1305282112845143,2.0,2.800720288115246,1.836734693877551,6.637454981992797,1.758703481392557,3.919567827130852,28.873031212484992,1.3217286914765907,111.05882352941177
La2Ga2GeS8,2.78,La2 Ga2 Ge1 S8,25.846153846153847,73.61538461538461,562.3153846153847,13.384615384615385,124.46153846153847,2.19,2.0,2.769230769230769,2.4615384615384617,7.230769230769231,2.3076923076923075,3.6923076923076925,26.216153846153848,1.3845384615384615,100.07692307692308
La2Ge2Se7,1.08,La2 Ge2 Se7,37.81818181818182,73.36363636363636,751.5272727272727,13.272727272727273,135.8181818181818,2.188181818181818,2.0,2.909090909090909,8.363636363636363,13.272727272727273,2.0,3.6363636363636362,27.38590909090909,0.5780909090909091,85.0909090909091
La2GeSe5,1.24,La2 Ge1 Se5,39.5,68.75,758.425,12.5,141.75,2.12,2.0,2.75,7.75,12.5,1.75,4.0,28.300000000000004,0.54725,85.375
La2HfS5,0.7,La2 Hf1 S5,33.25,63.875,854.225,11.25,139.25,2.05,2.0,2.5,0.5,6.75,1.25,4.5,28.116171875,1.37625,116.5
La2Mn(SeO)2,1.6,La2 Mn1 Se2 O2,31.857142857142858,61.42857142857143,714.657142857143,11.0,132.14285714285714,2.2471428571428573,2.0,2.2857142857142856,3.857142857142857,8.142857142857142,1.1428571428571428,4.428571428571429,22.04751231527143,0.2282857142857143,93.85714285714286
La2O3,5.4,La2 O3,27.6,57.4,510.08000000000004,10.8,122.4,2.504,2.0,2.4,0.4,4.8,1.2,4.8,20.222,0.0,84.8
La2S3,2.77,La2 S3,32.4,58.0,710.216,10.8,145.8,1.9880000000000002,2.0,2.4,0.4,4.8,1.2,4.8,30.231125,1.3212,119.6
La2TiCoO6,1.02,La2 Ti1 Co1 O6,21.1,64.9,642.38,11.5,109.6,2.6260000000000003,2.0,2.4,1.1,5.5,1.2,4.1,15.536000000000001,0.0,84.8
La2V2IO9,3.63,La2 V2 I1 O9,20.357142857142858,71.21428571428571,545.1464285714286,12.642857142857142,103.78571428571429,2.7914285714285714,2.0,2.9285714285714284,1.2857142857142858,6.214285714285714,1.3571428571428572,3.642857142857143,16.05535714285714,0.07585714285714286,72.71428571428571
La2VCoO6,0.41,La2 V1 Co1 O6,21.2,65.2,666.58,11.6,108.9,2.6350000000000002,2.0,2.4,1.2,5.6,1.2,4.0,15.168000000000001,0.0,88.3
La2VNiO6,0.45,La2 V1 Ni1 O6,21.3,65.5,662.58,11.7,108.7,2.6380000000000003,2.0,2.4,1.3,5.7,1.2,3.9,15.1755,0.0,91.4
La2YbCuS5,1.45,La2 Yb1 Cu1 S5,32.55555555555556,63.22222222222222,753.0633333333334,11.11111111111111,139.77777777777777,2.0288888888888885,1.8888888888888888,2.2222222222222223,1.3333333333333333,7.0,1.1111111111111112,3.2222222222222223,27.546597222222218,1.2233333333333334,132.0
La2YbCuSe5,1.15,La2 Yb1 Cu1 Se5,42.55555555555556,63.77777777777778,811.7522222222223,11.11111111111111,148.11111111111111,2.0122222222222224,1.8888888888888888,2.2222222222222223,6.888888888888889,12.555555555555555,1.1111111111111112,3.2222222222222223,27.620555555555555,0.4438888888888889,100.88888888888889
La2Zn(SeO)2,3.4,La2 Zn1 Se2 O2,32.57142857142857,63.857142857142854,596.6114285714285,11.714285714285714,129.71428571428572,2.261428571428571,2.0,2.2857142857142856,4.571428571428571,8.857142857142858,1.1428571428571428,3.7142857142857144,22.54357142857143,0.2282857142857143,90.57142857142857
La2ZrS5,2.01,La2 Zr1 S5,29.25,63.75,806.975,11.25,139.25,2.05375,2.0,2.5,0.5,5.0,1.25,4.5,28.240546875,1.37625,116.5