composition,gap expt,composition_pmg,MagpieData mean Number,MagpieData mean MendeleevNumber,MagpieData mean MeltingT,MagpieData mean Column,MagpieData mean CovalentRadius,MagpieData mean Electronegativity,MagpieData mean NsValence,MagpieData mean NpValence,MagpieData mean NdValence,MagpieData mean NValence,MagpieData mean NpUnfilled,MagpieData mean NUnfilled,MagpieData mean GSvolume_pa,MagpieData mean GSbandgap,MagpieData mean SpaceGroupNumber
V2Zn3TeO10,2.96,V2 Zn3 Te1 O10,16.75,78.6875,482.16875,13.875,91.875,2.7943749999999996,2.0,2.75,2.875,7.625,1.375,2.25,12.10708333333125,0.029,82.0
V3As2O9,0.76,V3 As2 O9,14.785714285714286,77.78571428571429,658.7285714285715,13.5,92.21428571428571,2.8721428571428573,2.0,3.0,2.0714285714285716,7.071428571428571,1.7142857142857142,3.2142857142857144,11.80892857142857,0.0,80.5
V3Bi(PbO4)3,2.5,V3 Bi1 Pb3 O12,26.0,79.52631578947368,502.7805263157895,13.894736842105264,96.6842105263158,2.9042105263157896,2.0,3.0,2.5789473684210527,10.526315789473685,2.0526315789473686,3.1578947368421053,13.977368421052631,0.0,79.89473684210526
V3Cd4(TeO5)3,2.66,V3 Cd4 Te3 O15,21.48,79.72,476.6344,14.04,97.56,2.782,2.0,2.88,3.16,8.04,1.44,2.28,14.314999999996001,0.05568000000000001,83.96
V3Pb2Se5O18,3.14,V3 Pb2 Se5 O18,19.535714285714285,82.53571428571429,400.2364285714286,14.678571428571429,90.67857142857143,3.007857142857143,2.0,3.4285714285714284,2.8214285714285716,9.25,1.9285714285714286,2.6785714285714284,13.883571428571429,0.14267857142857143,50.82142857142857
VAg(IO4)2,2.24,V1 Ag1 I2 O8,20.0,83.25,385.8358333333333,14.833333333333334,92.0,3.033333333333333,1.9166666666666667,3.5,2.75,8.166666666666666,1.5,2.1666666666666665,15.684166666666668,0.17700000000000002,56.5
VAg2I3O11,2.16,V1 Ag2 I3 O11,21.41176470588235,83.58823529411765,377.4241176470589,14.941176470588236,93.29411764705883,3.018235294117647,1.8823529411764706,3.4705882352941178,3.1176470588235294,8.470588235294118,1.4705882352941178,2.0,16.168823529411764,0.18741176470588236,59.0
VBi(SeO4)2,2.2,V1 Bi1 Se2 O8,19.833333333333332,83.83333333333333,346.15000000000003,15.0,89.08333333333333,3.0224999999999995,2.0,3.5833333333333335,2.75,9.5,1.9166666666666667,2.5,14.22,0.13316666666666668,30.416666666666668
VBi24O41,3.25,V1 Bi24 O41,35.5,86.01515151515152,265.08181818181816,15.469696969696969,97.13636363636364,2.8962121212121215,2.0,3.5757575757575757,3.6818181818181817,14.348484848484848,2.3333333333333335,2.4393939393939394,17.83507575757576,0.0,15.287878787878787
VCu3S4,1.0,V1 Cu3 S4,21.75,73.75,976.21875,12.75,121.125,2.20625,1.625,2.0,4.125,7.75,1.0,2.25,18.6709375,1.101,148.0
VFeSb,0.46,V1 Fe1 Sb1,33.333333333333336,62.0,1632.5933333333332,9.333333333333334,141.33333333333334,1.8366666666666667,2.0,1.0,6.333333333333333,9.333333333333334,1.0,4.666666666666667,18.433333333333334,0.0,208.0
VGa(TeO4)2,3.0,V1 Ga1 Te2 O8,18.5,83.0,364.13583333333327,14.833333333333334,89.91666666666667,2.9299999999999997,2.0,3.4166666666666665,2.75,8.166666666666666,2.0833333333333335,2.6666666666666665,14.519513888883333,0.07733333333333334,57.75
VIn(NiO3)2,1.92,V1 In1 Ni2 O6,17.6,76.5,639.755,13.4,93.9,2.787,2.0,2.5,2.9,7.4,1.7,2.8,11.254000000000001,0.0,89.0
VO,0.3,V1 O1,15.5,66.5,1118.9,10.5,109.5,2.535,2.0,2.0,1.5,5.5,1.0,4.5,11.057500000000001,0.0,120.5
VTeHO5,2.51,V1 Te1 H1 O5,14.5,82.875,399.20875,12.75,81.5,2.89125,1.875,3.0,1.625,6.5,1.5,2.5,12.4891666666625,1.039625,79.375
VZn2BiO6,2.4,V1 Zn2 Bi1 O6,21.4,79.2,444.15599999999995,14.0,94.1,2.759,2.0,2.7,3.3,9.4,1.5,2.2,12.850999999999999,0.0,70.1
Y(CuSe)3,0.88,Y1 Cu3 Se3,32.57142857142857,67.28571428571429,1050.6157142857141,12.0,135.14285714285714,2.0814285714285714,1.5714285714285714,1.7142857142857142,8.714285714285714,12.0,0.8571428571428571,2.5714285714285716,20.476428571428574,0.34242857142857147,130.14285714285714
Y(CuTe)3,0.72,Y1 Cu3 Te3,40.285714285714285,67.71428571428571,1148.612857142857,12.0,142.85714285714286,1.8885714285714283,1.5714285714285714,1.7142857142857142,8.714285714285714,12.0,0.8571428571428571,2.5714285714285716,24.266428571414284,0.19885714285714287,189.28571428571428
Y2O3,5.6,Y2 O3,20.4,57.0,752.48,10.8,115.6,2.552,2.0,2.4,0.4,4.8,1.2,4.8,18.409,0.0,84.8
Y2S3,2.9,Y2 S3,25.2,57.6,952.616,10.8,139.0,2.036,2.0,2.4,0.4,4.8,1.2,4.8,28.418124999999996,1.3212,119.6
Y3GaS6,2.88,Y3 Ga1 S6,24.4,63.8,803.007,11.8,132.2,2.095,2.0,2.5,1.3,5.8,1.7,4.4,27.067375,1.3212,106.6
Y4GaSbS9,2.06,Y4 Ga1 Sb1 S9,25.466666666666665,66.6,793.1953333333333,12.266666666666667,131.06666666666666,2.1306666666666665,2.0,2.6666666666666665,1.6,6.266666666666667,1.7333333333333334,4.133333333333334,27.463958333333334,1.3212,109.06666666666666
Y4US5O3,1.95,Y4 U1 S5 O3,27.076923076923077,59.15384615384615,823.8615384615384,11.0,129.15384615384616,2.267692307692308,2.0,2.4615384615384617,0.38461538461538464,5.076923076923077,1.2307692307692308,5.538461538461538,23.518028846153847,0.8469230769230769,94.23076923076923
Y6Zn(SiS7)2,2.38,Y6 Zn1 Si2 S14,22.434782608695652,66.47826086956522,882.5095652173914,12.26086956521739,128.43478260869566,2.1256521739130436,2.0,2.608695652173913,0.6956521739130435,5.304347826086956,1.565217391304348,3.9130434782608696,26.52375,1.4075652173913045,121.3913043478261
YB66,0.8,Y1 B66,5.507462686567164,71.1044776119403,2339.805970149254,12.850746268656716,85.58208955223881,2.0277611940298508,2.0,0.9850746268656716,0.014925373134328358,3.0,4.925373134328358,5.059701492537314,7.548507462686568,1.5012537313432837,166.4179104477612
YCd4B3O10,3.78,Y1 Cd4 B3 O10,18.11111111111111,76.55555555555556,653.7711111111112,13.88888888888889,93.22222222222223,2.6944444444444446,2.0,2.388888888888889,2.2777777777777777,6.666666666666667,1.9444444444444444,2.4444444444444446,12.38402777777778,0.254,88.22222222222223
YCuO2,3.5,Y1 Cu1 O2,21.0,62.5,816.5925,11.5,113.5,2.5,1.75,2.0,2.75,6.5,1.0,3.5,15.41125,0.0,110.75
YH2NO5,4.83,Y1 H2 N1 O5,9.777777777777779,79.22222222222223,240.4522222222222,11.11111111111111,72.55555555555556,2.873333333333333,1.7777777777777777,2.5555555555555554,0.1111111111111111,4.444444444444445,1.4444444444444444,2.6666666666666665,11.765416666666667,2.4603333333333333,92.88888888888889
YMoClO4,3.82,Y1 Mo1 Cl1 O4,18.571428571428573,72.0,726.5428571428572,12.857142857142858,101.42857142857143,2.9,1.8571428571428572,3.0,0.8571428571428571,5.714285714285714,1.2857142857142858,3.4285714285714284,15.567499999999999,0.35614285714285715,76.42857142857143
YMoO4F,3.78,Y1 Mo1 O4 F1,17.428571428571427,71.85714285714286,709.6714285714286,12.857142857142858,95.0,3.0171428571428573,1.8571428571428572,3.0,0.8571428571428571,5.714285714285714,1.2857142857142858,3.4285714285714284,13.454642857142856,0.2814285714285714,69.42857142857143
YN,1.9,Y1 N1,23.0,47.0,931.025,9.0,130.5,2.13,2.0,1.5,0.5,4.0,1.5,6.0,23.566875000000003,3.2185,194.0
YSbPd,0.27,Y1 Sb1 Pd1,45.333333333333336,53.0,1510.2766666666666,9.333333333333334,156.0,1.8233333333333333,1.3333333333333333,1.0,7.0,9.333333333333334,1.0,4.0,26.111666666666665,0.0,195.0
YSbPt,0.16,Y1 Sb1 Pt1,56.0,53.333333333333336,1581.3933333333334,9.333333333333334,155.0,1.8499999999999996,1.6666666666666667,1.0,6.666666666666667,14.0,1.0,4.666666666666667,26.314999999999998,0.0,195.0
YV(BiO4)2,2.09,Y1 V1 Bi2 O8,24.333333333333332,77.16666666666667,459.09999999999997,13.833333333333334,97.25,2.8674999999999997,2.0,3.1666666666666665,2.0,9.5,1.8333333333333333,3.1666666666666665,15.342916666666667,0.0,45.25
YVSeO10,2.7,Y1 V1 Se1 O10,13.538461538461538,78.23076923076923,386.46153846153845,14.153846153846153,86.38461538461539,3.0615384615384613,2.0,3.3846153846153846,1.0769230769230769,6.461538461538462,1.6923076923076923,2.923076923076923,12.488076923076925,0.06146153846153846,42.84615384615385
YVTeO10,2.2,Y1 V1 Te1 O10,14.923076923076923,78.3076923076923,404.0507692307692,14.153846153846153,87.76923076923077,3.0269230769230764,2.0,3.3846153846153846,1.0769230769230769,6.461538461538462,1.6923076923076923,2.923076923076923,13.168333333330771,0.0356923076923077,53.46153846153846
YZnBiO4,1.58,Y1 Zn1 Bi1 O4,26.285714285714285,73.57142857142857,465.03999999999996,13.428571428571429,103.42857142857143,2.664285714285714,2.0,2.7142857142857144,3.0,9.714285714285714,1.5714285714285714,2.857142857142857,16.527857142857144,0.0,64.0
Yb(CuS)3,1.56,Yb1 Cu3 S3,29.285714285714285,70.71428571428571,904.3414285714285,12.0,128.28571428571428,2.1,1.5714285714285714,1.7142857142857142,4.285714285714286,9.571428571428571,0.8571428571428571,1.2857142857142858,20.670089285714287,0.9437142857142857,158.57142857142858
Yb(CuSe)3,0.2,Yb1 Cu3 Se3,37.0,71.14285714285714,949.6157142857143,12.0,134.71428571428572,2.087142857142857,1.5714285714285714,1.7142857142857142,8.571428571428571,13.857142857142858,0.8571428571428571,1.2857142857142858,20.72714285714286,0.34242857142857147,134.57142857142858
Yb(GaS2)2,2.3,Yb1 Ga2 S4,28.0,77.0,464.46571428571434,13.285714285714286,121.57142857142857,2.1714285714285713,2.0,2.5714285714285716,2.857142857142857,9.428571428571429,2.5714285714285716,2.5714285714285716,24.997500000000002,1.2582857142857142,90.42857142857143
Yb(GaSe2)2,1.8,Yb1 Ga2 Se4,38.285714285714285,77.57142857142857,524.8314285714285,13.285714285714286,130.14285714285714,2.154285714285714,2.0,2.5714285714285716,8.571428571428571,15.142857142857142,2.5714285714285716,2.5714285714285716,25.07357142857143,0.4565714285714286,58.42857142857143
Yb(InS2)3,1.31,Yb1 In3 S6,31.3,79.2,471.14099999999996,13.8,124.3,2.2079999999999997,2.0,2.7,3.0,9.1,2.7,2.7,26.162125000000003,1.3212,106.2
Yb(SbS2)2,1.12,Yb1 Sb2 S4,33.714285714285715,80.14285714285714,636.1428571428571,13.857142857142858,126.42857142857143,2.2399999999999998,2.0,3.142857142857143,2.857142857142857,10.0,2.0,2.0,28.626785714285713,1.2582857142857142,119.57142857142857
Yb(SbTe2)2,0.34,Yb1 Sb2 Te4,54.285714285714285,81.28571428571429,827.1714285714286,13.857142857142858,145.28571428571428,1.9657142857142857,2.0,3.142857142857143,8.571428571428571,15.714285714285714,2.0,2.0,33.756190476171426,0.2651428571428572,166.42857142857142
Yb2EuS4,1.6,Yb2 Eu1 S4,38.142857142857146,65.0,690.3485714285715,10.428571428571429,141.71428571428572,2.0035714285714286,2.0,2.2857142857142856,0.0,9.285714285714286,1.1428571428571428,2.142857142857143,29.692499999999995,1.2582857142857142,137.0
Yb2EuSe4,1.3,Yb2 Eu1 Se4,48.42857142857143,65.57142857142857,750.7142857142857,10.428571428571429,150.28571428571428,1.9864285714285714,2.0,2.2857142857142856,5.714285714285714,15.0,1.1428571428571428,2.142857142857143,29.768571428571427,0.4565714285714286,105.0
Yb2O3,5.22,Yb2 O3,32.8,67.8,469.68,10.8,114.4,2.568,2.0,2.4,0.0,10.0,1.2,1.2,19.110999999999997,0.0,97.2
Yb4Sb2S11.25,1.71,Yb4 Sb2 S11.25,32.57971014492754,76.28985507246377,611.2817391304349,12.869565217391305,127.95652173913044,2.2124637681159425,2.0,2.9565217391304346,1.1594202898550725,9.36231884057971,1.6521739130434783,1.6521739130434783,28.388541666666665,1.4360869565217391,117.07246376811594
YbAs,1.02,Yb1 As1,51.5,61.5,1091.0,9.0,153.0,1.7200000000000002,2.0,1.5,5.0,15.5,1.5,1.5,28.1475,0.0,195.5
YbB66,1.27,Yb1 B66,5.970149253731344,71.50746268656717,2329.2537313432836,12.850746268656716,85.53731343283582,2.028358208955224,2.0,0.9850746268656716,0.0,3.1940298507462686,4.925373134328358,4.925373134328358,7.574701492537314,1.5012537313432837,166.88059701492537
YbCe2CuS5,1.37,Yb1 Ce2 Cu1 S5,32.77777777777778,63.666666666666664,725.9522222222223,11.11111111111111,139.11111111111111,2.033333333333333,1.8888888888888888,2.2222222222222223,1.3333333333333333,7.222222222222222,1.1111111111111112,6.111111111111111,27.622708333333332,1.2233333333333334,132.0
YbCe2CuSe5,1.05,Yb1 Ce2 Cu1 Se5,42.77777777777778,64.22222222222223,784.6411111111112,11.11111111111111,147.44444444444446,2.0166666666666666,1.8888888888888888,2.2222222222222223,6.888888888888889,12.777777777777779,1.1111111111111112,6.111111111111111,27.69666666666667,0.4438888888888889,100.88888888888889
YbNd2CuS5,1.35,Yb1 Nd2 Cu1 S5,33.22222222222222,64.55555555555556,775.5077777777778,11.11111111111111,138.44444444444446,2.037777777777778,1.8888888888888888,2.2222222222222223,1.1111111111111112,7.666666666666667,1.1111111111111112,3.4444444444444446,27.082708333333333,1.2233333333333334,132.0
YbPr2CuS5,1.25,Yb1 Pr2 Cu1 S5,33.0,64.11111111111111,755.5077777777778,11.11111111111111,138.88888888888889,2.035555555555556,1.8888888888888888,2.2222222222222223,1.1111111111111112,7.444444444444445,1.1111111111111112,3.6666666666666665,27.274930555555553,1.2233333333333334,132.0
YbSb,1.0,Yb1 Sb1,60.5,62.0,997.89,9.0,163.0,1.6549999999999998,2.0,1.5,5.0,15.5,1.5,1.5,32.839999999999996,0.0,195.5
YbSb4Te7,0.22,Yb1 Sb4 Te7,53.166666666666664,84.08333333333333,813.8116666666666,14.583333333333334,142.41666666666666,2.013333333333333,2.0,3.3333333333333335,9.166666666666666,15.666666666666666,2.1666666666666665,2.1666666666666665,33.641944444425,0.27066666666666667,162.75
YbSe,1.5,Yb1 Se1,52.0,64.0,793.0,9.5,153.5,1.9049999999999998,2.0,2.0,5.0,16.0,1.0,1.0,30.02,0.3995,119.5
YbSm2CuS5,1.28,Yb1 Sm2 Cu1 S5,33.666666666666664,65.44444444444444,786.8411111111112,11.11111111111111,137.77777777777777,2.0444444444444443,1.8888888888888888,2.2222222222222223,1.1111111111111112,8.11111111111111,1.1111111111111112,3.0,26.73159722222222,1.2233333333333334,125.77777777777777
YbSnTe2,0.75,Yb1 Sn1 Te2,56.0,74.75,760.5999999999999,12.25,150.5,1.855,2.0,2.5,7.5,15.5,2.0,2.0,34.23291666665,0.232,167.5
YbTe,1.8,Yb1 Te1,61.0,64.5,907.3299999999999,9.5,162.5,1.6800000000000002,2.0,2.0,5.0,16.0,1.0,1.0,34.44166666664999,0.232,188.5
YbWClO4,4.23,Yb1 W1 Cl1 O4,27.571428571428573,76.0,739.6857142857143,12.857142857142858,102.14285714285714,2.934285714285714,2.0,3.0,0.5714285714285714,9.571428571428571,1.2857142857142858,2.142857142857143,15.869642857142859,0.35614285714285715,80.85714285714286
Zn(Bi19O29)2,2.88,Zn1 Bi38 O58,37.608247422680414,86.42268041237114,253.1781443298969,15.56701030927835,98.70103092783505,2.865257731958763,2.0,3.5670103092783507,4.020618556701031,15.072164948453608,2.3711340206185567,2.3711340206185567,18.49639175257732,0.0,13.876288659793815
Zn(GaSe2)2,1.72,Zn1 Ga2 Se4,32.57142857142857,81.85714285714286,467.7857142857143,14.571428571428571,120.85714285714286,2.21,2.0,2.5714285714285716,10.0,14.571428571428571,2.5714285714285716,2.5714285714285716,22.19357142857143,0.4565714285714286,54.0
Zn0.01Ga0.99As0.99Se0.01,1.39,Zn0.01 Ga0.99 As0.99 Se0.01,32.0,79.0,695.42385,13.999999999999998,120.505,1.9960500000000003,2.0,2.0,10.0,13.999999999999998,3.9699999999999998,3.9699999999999998,20.5104875,0.003995,114.88999999999999
Zn0.01Ga0.99P0.99S0.01,2.25,Zn0.01 Ga0.99 P0.99 S0.01,23.0,78.5,312.40915,13.999999999999998,114.49000000000001,2.00115,2.0,2.0,5.0,8.999999999999998,3.9699999999999998,3.9699999999999998,20.705464732124,0.8153849999999999,33.99
Zn0.01Ga0.99P0.99Se0.01,2.24,Zn0.01 Ga0.99 P0.99 Se0.01,23.090000000000003,78.505,312.93735000000004,13.999999999999998,114.565,2.001,2.0,2.0,5.05,9.049999999999999,3.9699999999999998,3.9699999999999998,20.706130357124,0.8083699999999999,33.71
Zn0.01Ga0.99Sb0.99Te0.01,0.72,Zn0.01 Ga0.99 Sb0.99 Te0.01,41.0,79.50000000000001,604.38825,13.999999999999998,130.495,1.9294499999999997,2.0,2.0,10.0,13.999999999999998,3.9699999999999998,3.9699999999999998,25.2002791666665,0.00232,115.58
Zn0.05Ga0.95Sb0.95Te0.05,0.85,Zn0.05 Ga0.95 Sb0.95 Te0.05,40.99999999999999,79.5,608.56125,14.0,130.47499999999997,1.92725,2.0,2.0,10.0,14.0,3.8499999999999996,3.8499999999999996,25.166395833332498,0.011600000000000001,117.89999999999999
Zn0.15Ga0.85As0.85Se0.15,1.47,Zn0.15 Ga0.85 As0.85 Se0.15,32.0,78.99999999999999,680.98775,13.999999999999998,120.57499999999999,2.0107500000000003,2.0,2.0,10.0,13.999999999999998,3.55,3.55,20.4298125,0.059925,113.35
Zn0.1Ga0.9Sb0.9Te0.1,1.0,Zn0.1 Ga0.9 Sb0.9 Te0.1,41.0,79.5,613.7775000000001,14.000000000000002,130.45000000000002,1.9245,2.0,2.0,10.0,14.000000000000002,3.7,3.7,25.124041666665,0.023200000000000002,120.8
Zn0.25Ga0.75As0.75Se0.25,1.51,Zn0.25 Ga0.75 As0.75 Se0.25,32.0,79.0,670.67625,14.0,120.625,2.02125,2.0,2.0,10.0,14.0,3.25,3.25,20.372187500000003,0.099875,112.25
Zn0.25Ga0.75P0.75Se0.25,2.18,Zn0.25 Ga0.75 P0.75 Se0.25,25.25,78.625,380.91375,14.0,116.125,2.025,2.0,2.0,6.25,10.25,3.25,3.25,20.520401785700003,0.70925,50.75
Zn0.2Ga0.8Sb0.8Te0.2,1.15,Zn0.2 Ga0.8 Sb0.8 Te0.2,41.00000000000001,79.5,624.2099999999999,14.0,130.4,1.919,2.0,2.0,10.0,14.0,3.4000000000000004,3.4000000000000004,25.039333333330003,0.046400000000000004,126.60000000000001
Zn0.2Hg0.8Te1,0.07,Zn0.2 Hg0.8 Te1,61.0,80.30000000000001,524.326,14.0,134.0,2.015,2.0,2.0,10.0,19.6,1.0,1.0,28.87270114941,0.232,161.8
Zn0.3Ga0.7P0.7S0.3,2.3,Zn0.3 Ga0.7 P0.7 S0.3,23.0,78.5,379.22950000000003,14.0,114.19999999999999,2.0345,2.0,2.0,5.0,9.0,3.0999999999999996,3.0999999999999996,20.461739583319996,0.8990499999999999,62.7
Zn0.42Ga0.58As0.58Se0.42,1.67,Zn0.42 Ga0.58 As0.58 Se0.42,32.0,79.0,653.1467,13.999999999999998,120.71,2.0391,2.0,2.0,10.0,13.999999999999998,2.7399999999999998,2.7399999999999998,20.274225,0.16779,110.38
Zn0.4Hg0.6Se1,0.42,Zn0.4 Hg0.6 Se1,47.0,79.6,455.832,14.0,124.0,2.205,2.0,2.0,10.0,18.2,1.0,1.0,23.323275862070002,0.3995,95.6
Zn0.55Hg0.45Se1,0.8,Zn0.55 Hg0.45 Se1,43.25,79.45,490.209,14.0,123.25,2.17875,2.0,2.0,10.0,17.15,1.0,1.0,22.477456896552503,0.3995,97.7
Zn0.5Ga0.5As0.5Se0.5,1.52,Zn0.5 Ga0.5 As0.5 Se0.5,32.0,79.0,644.8975,14.0,120.75,2.0475000000000003,2.0,2.0,10.0,14.0,2.5,2.5,20.228125000000002,0.19975,109.5
Zn0.5Ga0.5P0.5Se0.5,2.13,Zn0.5 Ga0.5 P0.5 Se0.5,27.5,78.75,451.72249999999997,14.0,117.75,2.05,2.0,2.0,7.5,11.5,2.5,2.5,20.326934523800002,0.606,68.5
Zn0.65Hg0.35Se1,1.0,Zn0.65 Hg0.35 Se1,40.75,79.35,513.127,14.0,122.75,2.16125,2.0,2.0,10.0,16.45,1.0,1.0,21.913577586207502,0.3995,99.1
Zn0.6Ga0.4As0.4Se0.6,1.8,Zn0.6 Ga0.4 As0.4 Se0.6,32.0,79.0,634.586,14.0,120.8,2.058,2.0,2.0,10.0,14.0,2.2,2.2,20.1705,0.2397,108.4
Zn0.75Cd0.25Se1,3.2,Zn0.75 Cd0.25 Se1,34.25,79.125,581.0325,14.0,123.75,2.1049999999999995,2.0,2.0,10.0,14.0,1.0,1.0,20.631875,0.3995,104.0
Zn0.75Hg0.25Se1,1.4,Zn0.75 Hg0.25 Se1,38.25,79.25,536.0450000000001,14.0,122.25,2.14375,2.0,2.0,10.0,15.75,1.0,1.0,21.3496982758625,0.3995,100.5
Zn0.7Ga0.3As0.3Se0.7,1.93,Zn0.7 Ga0.3 As0.3 Se0.7,31.999999999999996,79.0,624.2745,13.999999999999998,120.85,2.0685,2.0,2.0,10.0,13.999999999999998,1.9,1.9,20.112875,0.27965,107.29999999999998
Zn0.7Ga0.3P0.3Se0.7,2.15,Zn0.7 Ga0.3 P0.3 Se0.7,29.299999999999997,78.85,508.3694999999999,13.999999999999998,119.05,2.07,2.0,2.0,8.5,12.5,1.9,1.9,20.172160714279997,0.5234,82.69999999999999
Zn0.85Ga0.15As0.15Se0.85,2.25,Zn0.85 Ga0.15 As0.15 Se0.85,32.0,79.0,608.80725,14.0,120.925,2.08425,2.0,2.0,10.0,14.0,1.45,1.45,20.0264375,0.339575,105.65
Zn0.85Hg0.15Se1,1.8,Zn0.85 Hg0.15 Se1,35.75,79.15,558.963,14.0,121.75,2.1262499999999998,2.0,2.0,10.0,15.05,1.0,1.0,20.7858189655175,0.3995,101.9
Zn0.86Hg0.14Te1,1.66,Zn0.86 Hg0.14 Te1,44.5,79.64,675.5848,14.0,130.7,1.8995,2.0,2.0,10.0,14.98,1.0,1.0,25.151097701132997,0.232,171.04000000000002
Zn0.8Hg0.2Se1,1.4,Zn0.8 Hg0.2 Se1,37.0,79.2,547.504,14.0,122.0,2.135,2.0,2.0,10.0,15.4,1.0,1.0,21.06775862069,0.3995,101.20000000000002
Zn0.8Hg0.2Te1,1.4,Zn0.8 Hg0.2 Te1,46.0,79.7,661.8340000000001,14.0,131.0,1.9100000000000001,2.0,2.0,10.0,15.4,1.0,1.0,25.489425287339998,0.232,170.20000000000002
Zn0.92Hg0.08Te1,1.9,Zn0.92 Hg0.08 Te1,43.0,79.58,689.3355999999999,14.0,130.4,1.889,2.0,2.0,10.0,14.56,1.0,1.0,24.812770114926,0.232,171.88
Zn0.94Hg0.06Te1,2.03,Zn0.94 Hg0.06 Te1,42.5,79.56,693.9191999999999,14.0,130.3,1.8855,2.0,2.0,10.0,14.42,1.0,1.0,24.699994252857,0.232,172.16
Zn0.95Ga0.05P0.05Se0.95,2.4,Zn0.95 Ga0.05 P0.05 Se0.95,31.549999999999997,78.975,579.1782499999999,14.0,120.67499999999998,2.0949999999999998,2.0,2.0,9.75,13.75,1.15,1.15,19.97869345238,0.42015,100.44999999999999
Zn0.99Ga0.01As0.01Se0.99,2.59,Zn0.99 Ga0.01 As0.01 Se0.99,31.999999999999996,79.0,594.37115,14.0,120.995,2.09895,2.0,2.0,10.0,14.0,1.03,1.03,19.9457625,0.395505,104.10999999999999