composition,gap expt,composition_pmg,MagpieData mean Number,MagpieData mean MendeleevNumber,MagpieData mean MeltingT,MagpieData mean Column,MagpieData mean CovalentRadius,MagpieData mean Electronegativity,MagpieData mean NsValence,MagpieData mean NpValence,MagpieData mean NdValence,MagpieData mean NValence,MagpieData mean NpUnfilled,MagpieData mean NUnfilled,MagpieData mean GSvolume_pa,MagpieData mean GSbandgap,MagpieData mean SpaceGroupNumber
CsMn4In5Se12,1.79,Cs1 Mn4 In5 Se12,36.72727272727273,75.27272727272727,657.0154545454545,13.0,134.0909090909091,2.113181818181818,1.9545454545454546,2.409090909090909,8.636363636363637,13.0,2.227272727272727,3.1818181818181817,26.82069749216364,0.4358181818181819,89.0909090909091
CsMn4In5Te12,1.48,Cs1 Mn4 In5 Te12,46.54545454545455,75.81818181818181,781.739090909091,13.0,143.9090909090909,1.867727272727273,1.9545454545454546,2.409090909090909,8.636363636363637,13.0,2.227272727272727,3.1818181818181817,31.644333855781817,0.2530909090909091,164.36363636363637
CsNa2Sb,0.8,Cs1 Na2 Sb1,32.0,23.5,486.7775,4.5,178.75,1.175,1.25,0.75,2.5,4.5,0.75,1.5,51.45291666665,0.0,213.25
CsNa8(B7O12)3,4.67,Cs1 Na8 B21 O36,8.121212121212121,70.68181818181819,826.5053030303031,13.0,86.54545454545455,2.6501515151515154,1.8636363636363635,2.5,0.0,4.363636363636363,2.6818181818181817,2.8181818181818183,12.547184343430303,0.4849090909090909,90.5909090909091
CsNbSe2O7,4.2,Cs1 Nb1 Se2 O7,20.0,76.27272727272727,402.1081818181819,13.636363636363637,100.9090909090909,2.87,1.8181818181818181,3.272727272727273,2.1818181818181817,7.2727272727272725,1.6363636363636365,2.3636363636363638,22.683636363636364,0.14527272727272728,51.81818181818182
CsPPbO4,4.39,Cs1 P1 Pb1 O4,26.285714285714285,73.85714285714286,205.52857142857144,13.428571428571429,108.71428571428571,2.724285714285714,1.8571428571428572,3.0,1.4285714285714286,8.285714285714286,2.142857142857143,2.2857142857142856,28.98074829931429,0.23214285714285715,72.0
CsPSe4,2.44,Cs1 P1 Se4,34.333333333333336,74.0,432.4816666666666,13.333333333333334,138.5,2.1966666666666668,1.8333333333333333,3.1666666666666665,6.666666666666667,11.666666666666666,1.8333333333333333,2.0,40.33587301586667,0.8035,47.833333333333336
CsPSe6,1.9,Cs1 P1 Se6,34.25,77.75,447.86125,14.0,133.875,2.2849999999999997,1.875,3.375,7.5,12.75,1.875,2.0,36.7319047619,0.8023750000000001,39.375
CsRb(PSe4)2,2.41,Cs1 Rb1 P2 Se8,32.833333333333336,73.91666666666667,433.3875,13.333333333333334,136.5,2.1991666666666667,1.8333333333333333,3.1666666666666665,6.666666666666667,11.666666666666666,1.8333333333333333,2.0,38.24899801586667,0.8035,47.833333333333336
CsRb2Sb,1.5,Cs1 Rb2 Sb1,45.0,24.5,457.5725,4.5,205.75,1.1199999999999999,1.25,0.75,2.5,4.5,0.75,1.5,82.1925,0.0,213.25
CsSb(SO4)2,4.68,Cs1 Sb1 S2 O8,16.833333333333332,80.16666666666667,201.70749999999998,14.666666666666666,93.41666666666667,2.9599999999999995,1.9166666666666667,3.5833333333333335,0.8333333333333334,6.333333333333333,1.9166666666666667,2.0,22.644895833333333,0.367,52.583333333333336
CsSbS2,2.8,Cs1 Sb1 S2,34.5,66.5,495.5225,12.0,148.25,2.0,1.75,2.75,2.5,7.0,1.75,2.0,49.724687499999995,1.101,133.75
CsSbSe2,1.7,Cs1 Sb1 Se2,43.5,67.0,548.3425,12.0,155.75,1.9849999999999999,1.75,2.75,7.5,12.0,1.75,2.0,49.79125,0.3995,105.75
CsSbTe2,0.43,Cs1 Sb1 Te2,52.5,67.5,662.6724999999999,12.0,164.75,1.76,1.75,2.75,7.5,12.0,1.75,2.0,54.212916666649996,0.232,174.75
CsSc(SeO3)2,5.2,Cs1 Sc1 Se2 O6,19.2,71.6,343.23900000000003,13.2,105.0,2.789,1.9,3.2,2.1,7.2,1.6,2.6,24.447,0.1598,52.3
CsSmCdSe3,2.45,Cs1 Sm1 Cd1 Se3,44.5,60.833333333333336,620.4683333333334,10.666666666666666,157.66666666666666,1.883333333333333,1.8333333333333333,2.0,6.666666666666667,11.5,1.0,2.5,41.041666666666664,0.3995,105.16666666666667
CsSmHgSe3,2.37,Cs1 Sm1 Hg1 Se3,49.833333333333336,61.0,560.485,10.666666666666666,155.66666666666666,1.9349999999999998,1.8333333333333333,2.0,6.666666666666667,13.833333333333334,1.0,2.5,41.99876436781667,0.3995,100.5
CsTa3(SeO6)2,3.88,Cs1 Ta3 Se2 O12,24.333333333333332,76.16666666666667,656.5105555555556,13.333333333333334,99.22222222222223,2.8705555555555557,1.9444444444444444,3.111111111111111,1.6111111111111112,9.0,1.5555555555555556,2.7777777777777777,18.40138888888889,0.08877777777777779,60.44444444444444
CsTaPSe6,2.29,Cs1 Ta1 P1 Se6,38.55555555555556,74.44444444444444,763.6544444444445,13.0,137.88888888888889,2.197777777777778,1.8888888888888888,3.0,7.0,13.444444444444445,1.6666666666666667,2.5555555555555554,34.66391534391111,0.7132222222222223,60.44444444444444
CsTb9(Cd2Se9)2,1.95,Cs1 Tb9 Cd4 Se18,45.125,67.125,819.7334375,11.375,147.6875,2.010625,1.96875,2.25,6.875,13.625,1.125,2.5625,29.560468750009377,0.44943750000000005,93.84375
CsTbZnTe3,2.12,Cs1 Tb1 Zn1 Te3,51.0,62.166666666666664,798.5416666666666,10.666666666666666,162.33333333333334,1.6583333333333334,1.8333333333333333,2.0,6.666666666666667,12.0,1.0,2.0,44.291944444433334,0.232,178.83333333333334
CsTm9(Cd2Se9)2,2.16,Cs1 Tm9 Cd4 Se18,46.25,69.375,872.8896875,11.375,146.5625,2.0218749999999996,1.96875,2.25,6.875,14.75,1.125,1.4375,29.01015625,0.44943750000000005,93.84375
CsYCdSe3,2.54,Cs1 Y1 Cd1 Se3,40.666666666666664,59.0,696.1350000000001,10.666666666666666,156.33333333333334,1.8916666666666666,1.8333333333333333,2.0,6.833333333333333,10.666666666666666,1.0,2.6666666666666665,40.8975,0.3995,109.83333333333333
CsYHgSe3,2.54,Cs1 Y1 Hg1 Se3,46.0,59.166666666666664,636.1516666666668,10.666666666666666,154.33333333333334,1.9433333333333334,1.8333333333333333,2.0,6.833333333333333,13.0,1.0,2.6666666666666665,41.85459770115,0.3995,105.16666666666667
CsYTe3O8,3.4,Cs1 Y1 Te3 O8,24.153846153846153,75.61538461538461,362.07461538461536,13.846153846153847,105.84615384615384,2.756153846153846,1.9230769230769231,3.3846153846153846,2.3846153846153846,7.6923076923076925,1.6923076923076923,2.4615384615384617,25.019999999992304,0.10707692307692308,75.0
CsYbCoSe3,0.95,Cs1 Yb1 Co1 Se3,42.333333333333336,61.5,773.9316666666667,10.166666666666666,152.83333333333334,1.9299999999999997,1.8333333333333333,2.0,6.166666666666667,12.333333333333334,1.0,1.6666666666666667,39.64833333333333,0.3995,115.0
CsYbMnSe3,1.59,Cs1 Yb1 Mn1 Se3,42.0,60.5,732.4316666666667,9.833333333333334,155.0,1.875,1.8333333333333333,2.0,5.833333333333333,12.0,1.0,2.0,39.68876436781667,0.3995,118.83333333333333
CsZn2B3O7,5.69,Cs1 Zn2 B3 O7,14.307692307692308,74.46153846153847,701.1192307692309,13.538461538461538,92.46153846153847,2.6376923076923076,1.9230769230769231,2.3846153846153846,1.5384615384615385,5.846153846153846,2.230769230769231,2.3076923076923075,17.610576923076923,0.3516923076923077,92.23076923076923
CsZn4In5Se12,1.61,Cs1 Zn4 In5 Se12,37.63636363636363,78.36363636363636,506.7754545454545,13.909090909090908,131.0,2.1313636363636363,1.9545454545454546,2.409090909090909,9.545454545454545,13.909090909090908,2.227272727272727,2.272727272727273,27.452045454545456,0.4358181818181819,84.9090909090909
CsZn4In5Te12,1.61,Cs1 Zn4 In5 Te12,47.45454545454545,78.9090909090909,631.4990909090909,13.909090909090908,140.8181818181818,1.885909090909091,1.9545454545454546,2.409090909090909,9.545454545454545,13.909090909090908,2.227272727272727,2.272727272727273,32.27568181816363,0.2530909090909091,160.1818181818182
CsZrPSe6,2.0,Cs1 Zr1 P1 Se6,34.888888888888886,74.0,634.5433333333334,12.88888888888889,138.44444444444446,2.178888888888889,1.8888888888888888,3.0,6.888888888888889,11.777777777777779,1.6666666666666667,2.6666666666666665,35.227804232800004,0.7132222222222223,56.55555555555556
Cu0.5Ge1Pb1.75S4,1.48,Cu0.5 Ge1 Pb1.75 S4,35.03448275862069,83.41379310344827,619.9713793103448,14.89655172413793,118.82758620689656,2.394137931034483,1.9310344827586208,2.9655172413793105,4.482758620689655,12.758620689655173,2.6206896551724137,2.689655172413793,24.94896551724138,1.2677241379310344,139.48275862068965
Cu0.96Bi2Se3I1,0.68,Cu0.96 Bi2 Se3 I1,50.12068965517242,85.69540229885058,612.2283333333334,15.166666666666668,132.43103448275863,2.3238505747126434,1.8620689655172415,3.3045977011494254,10.0,19.189655172413794,1.867816091954023,2.005747126436782,28.348017241379313,0.49698275862068975,49.71264367816092
Cu1.8S1,2.3,Cu1.8 S1,24.35714285714286,72.57142857142857,1011.5521428571429,12.785714285714285,122.35714285714288,2.142857142857143,1.3571428571428572,1.4285714285714286,6.428571428571429,9.214285714285715,0.7142857142857143,1.3571428571428572,16.326026785714287,0.7864285714285715,169.64285714285717
Cu2GeS3,0.53,Cu2 Ge1 S3,23.0,78.5,848.6700000000001,14.0,116.5,2.2583333333333333,1.6666666666666667,2.3333333333333335,5.0,9.0,1.6666666666666667,2.0,20.417604166666667,1.1648333333333334,147.5
Cu2O,2.58,Cu2 O1,22.0,71.66666666666667,923.4466666666667,12.666666666666666,110.0,2.4133333333333336,1.3333333333333333,1.3333333333333333,6.666666666666667,9.333333333333334,0.6666666666666666,1.3333333333333333,10.415000000000001,0.0,154.0
Cu2Te3O8,2.64,Cu2 Te3 O8,21.384615384615383,84.15384615384616,409.3784615384615,15.23076923076923,92.76923076923077,2.8938461538461544,1.8461538461538463,3.3846153846153846,3.8461538461538463,9.076923076923077,1.6923076923076923,1.8461538461538463,15.328461538453846,0.10707692307692308,77.07692307692308
Cu2WSe4,1.65,Cu2 W1 Se4,38.285714285714285,76.42857142857143,1198.077142857143,13.142857142857142,129.42857142857142,2.337142857142857,1.7142857142857142,2.2857142857142856,9.142857142857142,15.142857142857142,1.1428571428571428,2.2857142857142856,20.267142857142858,0.4565714285714286,105.0
Cu3Bi6S10I,0.72,Cu3 Bi6 S10 I1,39.9,84.2,580.508,15.0,123.65,2.314,1.85,3.15,5.0,14.2,1.95,2.1,26.589687500000004,1.1541000000000001,75.55
Cu3Hg2(Te3O8)2,2.56,Cu3 Hg2 Te6 O16,25.444444444444443,83.92592592592592,361.2855555555555,15.148148148148149,94.22222222222223,2.8644444444444446,1.8888888888888888,3.259259259259259,4.074074074074074,10.25925925925926,1.6296296296296295,1.7407407407407407,16.220191570874075,0.10311111111111113,78.18518518518519
Cu3SbSe4,0.31,Cu3 Sb1 Se4,34.25,79.125,869.13625,14.0,126.875,2.24375,1.625,2.375,10.0,14.0,1.375,1.75,21.05625,0.3995,112.125
Cu4Sn7S16,0.8,Cu4 Sn7 S16,26.74074074074074,82.37037037037037,562.237037037037,14.74074074074074,117.81481481481481,2.3185185185185184,1.8518518518518519,2.888888888888889,4.074074074074074,8.814814814814815,2.2222222222222223,2.3703703703703702,25.550555555555555,1.3048888888888888,111.37037037037037
CuBS2,3.61,Cu1 B1 S2,16.5,78.0,1120.6225,14.0,106.5,2.275,1.75,2.25,2.5,6.5,2.25,2.5,17.4540625,1.482,132.75
CuBi(PSe3)2,1.2,Cu1 Bi1 P2 Se6,34.6,85.0,550.077,15.2,121.4,2.3600000000000003,1.9,3.3,8.0,14.6,2.1,2.2,24.46804761904,0.8044,32.5
CuBiPbS3,0.12,Cu1 Bi1 Pb1 S3,40.333333333333336,82.5,611.3100000000001,14.666666666666666,123.5,2.3316666666666666,1.8333333333333333,2.8333333333333335,5.0,14.333333333333334,2.1666666666666665,2.3333333333333335,24.915104166666666,1.101,112.0
CuBiPbSe3,0.07,Cu1 Bi1 Pb1 Se3,49.333333333333336,83.0,664.13,14.666666666666666,131.0,2.3166666666666664,1.8333333333333333,2.8333333333333335,10.0,19.333333333333332,2.1666666666666665,2.3333333333333335,24.981666666666666,0.3995,84.0
CuBiSO,1.07,Cu1 Bi1 S1 O1,34.0,81.25,586.3325000000001,14.5,112.75,2.485,1.75,2.75,5.0,13.0,1.75,2.0,19.727968750000002,0.5505,79.75
CuBiSeO,0.82,Cu1 Bi1 Se1 O1,38.5,81.5,612.7425000000001,14.5,116.5,2.4775,1.75,2.75,7.5,15.5,1.75,2.0,19.76125,0.19975,65.75
CuHg(SeO3)2,3.25,Cu1 Hg1 Se2 O6,22.5,83.5,290.889,15.1,90.0,2.964,1.9,3.2,4.0,10.5,1.6,1.7,14.27775862069,0.1598,49.1
CuN3,4.17,Cu1 N3,12.5,77.5,386.73,14.0,86.25,2.7550000000000003,1.75,2.25,2.5,6.5,2.25,2.5,13.844062500000001,4.82775,201.75
CuNi(CN)4,2.7,Cu1 Ni1 C4 N4,10.9,76.1,1862.997,13.7,84.4,2.617,1.9,2.0,1.8,5.7,2.8,3.1,10.3025,4.3732,200.2
CuPS3,2.2,Cu1 P1 S3,18.4,82.2,568.03,14.8,110.8,2.366,1.8,3.0,2.0,6.8,1.8,2.0,22.20017261904,1.6461999999999999,87.4
CuSbPbS3,1.31,Cu1 Sb1 Pb1 S3,35.0,82.33333333333333,671.2066666666667,14.666666666666666,122.0,2.3366666666666664,1.8333333333333333,2.8333333333333335,5.0,12.0,2.1666666666666665,2.3333333333333335,24.683437499999997,1.101,137.66666666666666
CuSbS2,1.38,Cu1 Sb1 S2,28.0,81.25,759.5675000000001,14.5,120.25,2.2775,1.75,2.75,5.0,9.5,1.75,2.0,23.550937499999996,1.101,132.75
CuSbSe2,1.05,Cu1 Sb1 Se2,37.0,81.75,812.3875,14.5,127.75,2.2624999999999997,1.75,2.75,10.0,14.5,1.75,2.0,23.6175,0.3995,104.75
Dy(CuSe)3,0.2,Dy1 Cu3 Se3,36.42857142857143,70.0,1034.33,12.0,135.42857142857142,2.0814285714285714,1.5714285714285714,1.7142857142857142,8.571428571428571,13.285714285714286,0.8571428571428571,1.8571428571428572,20.315714285714286,0.34242857142857147,130.14285714285714
Dy(CuTe)3,0.34,Dy1 Cu3 Te3,44.142857142857146,70.42857142857143,1132.3271428571427,12.0,143.14285714285714,1.8885714285714283,1.5714285714285714,1.7142857142857142,8.571428571428571,13.285714285714286,0.8571428571428571,1.8571428571428572,24.1057142857,0.19885714285714287,189.28571428571428
Dy(InS2)3,1.22,Dy1 In3 S6,30.9,78.4,530.441,13.8,124.8,2.2039999999999997,2.0,2.7,3.0,8.7,2.7,3.1,25.874125,1.3212,103.1
Dy1Te1.4,0.6,Dy1 Te1.4,57.83333333333334,65.41666666666667,1123.6350000000002,10.583333333333334,160.5,1.7333333333333334,2.0,2.3333333333333335,5.833333333333334,14.333333333333334,1.1666666666666667,2.8333333333333335,33.29527777775833,0.27066666666666667,169.5
Dy1Te1.45,0.6,Dy1 Te1.45,57.7142857142857,65.91836734693877,1115.4518367346939,10.693877551020407,160.0408163265306,1.740816326530612,2.0,2.36734693877551,5.918367346938775,14.36734693877551,1.183673469387755,2.816326530612245,33.32523809521836,0.2746122448979592,169.1428571428571
Dy1Te1.7,0.35,Dy1 Te1.7,57.185185185185176,68.14814814814814,1079.082222222222,11.185185185185183,158.0,1.774074074074074,2.0,2.518518518518518,6.296296296296296,14.518518518518519,1.259259259259259,2.7407407407407405,33.4583950617074,0.29214814814814816,167.55555555555554
Dy2(MoO4)3,1.92,Dy2 Mo3 O12,20.823529411764707,73.88235294117646,747.9764705882353,12.705882352941176,96.3529411764706,2.9529411764705884,1.8235294117647058,2.823529411764706,0.8823529411764706,6.705882352941177,1.411764705882353,2.9411764705882355,12.871176470588235,0.0,71.70588235294117
Dy2O3,5.0,Dy2 O3,31.2,64.6,706.88,10.8,116.4,2.552,2.0,2.4,0.0,8.4,1.2,2.8,17.959,0.0,84.8
Dy2S3,2.91,Dy2 S3,36.0,65.2,907.016,10.8,139.8,2.036,2.0,2.4,0.0,8.4,1.2,2.8,27.968124999999997,1.3212,119.6
Dy2Te3,0.69,Dy2 Te3,57.6,66.4,1107.596,10.8,159.6,1.748,2.0,2.4,6.0,14.4,1.2,2.8,33.35399999998,0.27840000000000004,168.8
Dy3Al0.5Si1S7,2.22,Dy3 Al0.5 Si1 S7,28.73913043478261,71.6086956521739,863.2395652173913,12.304347826086957,128.91304347826087,2.1239130434782614,2.0,2.652173913043478,0.0,7.260869565217392,1.7826086956521738,2.8260869565217392,26.339836956521737,1.4075652173913045,122.73913043478261
Dy3GaS6,2.81,Dy3 Ga1 S6,32.5,69.5,768.807,11.8,132.8,2.095,2.0,2.5,1.0,8.5,1.7,2.9,26.729875,1.3212,106.6
Dy4GaSbS9,2.58,Dy4 Ga1 Sb1 S9,32.666666666666664,71.66666666666667,762.7953333333334,12.266666666666667,131.6,2.1306666666666665,2.0,2.6666666666666665,1.3333333333333333,8.666666666666666,1.7333333333333334,2.8,27.163958333333333,1.3212,109.06666666666666
Dy4Te3S4,1.43,Dy4 Te3 S4,44.0,67.81818181818181,951.0381818181818,11.272727272727273,145.63636363636363,1.9545454545454546,2.0,2.5454545454545454,2.727272727272727,10.909090909090908,1.2727272727272727,2.727272727272727,30.217954545445455,0.9272727272727272,137.45454545454547
DyAs,1.0,Dy1 As1,49.5,57.5,1387.5,9.0,155.5,1.7000000000000002,2.0,1.5,5.0,13.5,1.5,3.5,26.7075,0.0,180.0
DyB6,3.3,Dy1 B6,13.714285714285714,66.14285714285714,2253.285714285714,11.571428571428571,99.42857142857143,1.922857142857143,2.0,0.8571428571428571,0.0,4.285714285714286,4.285714285714286,4.857142857142857,10.610714285714286,1.3062857142857143,170.0
DyPO4,6.38,Dy1 P1 O4,18.833333333333332,77.0,370.25,13.666666666666666,93.83333333333333,2.861666666666667,2.0,3.1666666666666665,0.0,6.833333333333333,1.8333333333333333,2.5,15.038373015866668,0.2708333333333333,40.666666666666664
Er(CuTe)3,0.24,Er1 Cu3 Te3,44.42857142857143,71.0,1144.4699999999998,12.0,142.71428571428572,1.8914285714285715,1.5714285714285714,1.7142857142857142,8.571428571428571,13.571428571428571,0.8571428571428571,1.5714285714285714,24.01214285712857,0.19885714285714287,189.28571428571428
Er(InS2)3,1.28,Er1 In3 S6,31.1,78.8,538.941,13.8,124.5,2.2060000000000004,2.0,2.7,3.0,8.9,2.7,2.9,25.808625,1.3212,103.1
Er2(MoO4)3,0.96,Er2 Mo3 O12,21.058823529411764,74.3529411764706,757.9764705882353,12.705882352941176,96.0,2.955294117647059,1.8235294117647058,2.823529411764706,0.8823529411764706,6.9411764705882355,1.411764705882353,2.7058823529411766,12.794117647058824,0.0,71.70588235294117
Er2O3,5.42,Er2 O3,32.0,66.2,740.88,10.8,115.2,2.56,2.0,2.4,0.0,9.2,1.2,2.0,17.697,0.0,84.8
Er2Se3,1.66,Er2 Se3,47.6,67.4,1004.4,10.8,147.6,2.026,2.0,2.4,6.0,15.2,1.2,2.0,27.786,0.47940000000000005,86.0
Er2Te3,0.9,Er2 Te3,58.4,68.0,1141.596,10.8,158.4,1.7560000000000002,2.0,2.4,6.0,15.2,1.2,2.0,33.09199999998,0.27840000000000004,168.8
Er3Te4,0.9,Er3 Te4,58.857142857142854,66.42857142857143,1171.52,10.428571428571429,159.85714285714286,1.7314285714285715,2.0,2.2857142857142856,5.714285714285714,15.142857142857142,1.1428571428571428,2.0,32.9726190476,0.2651428571428572,170.0
ErB6,3.5,Er1 B6,14.0,66.71428571428571,2265.4285714285716,11.571428571428571,99.0,1.9257142857142857,2.0,0.8571428571428571,0.0,4.571428571428571,4.285714285714286,4.571428571428571,10.517142857142858,1.3062857142857143,170.0
ErBiW2O9,3.26,Er1 Bi1 W2 O9,28.53846153846154,77.38461538461539,784.4307692307692,13.384615384615385,96.53846153846153,2.9953846153846153,2.0,3.0,1.3846153846153846,10.538461538461538,1.6153846153846154,2.6923076923076925,13.66,0.0,59.38461538461539
ErSe2,1.07,Er1 Se2,45.333333333333336,71.0,919.3333333333334,11.666666666666666,143.0,2.1133333333333333,2.0,2.6666666666666665,6.666666666666667,15.333333333333334,1.3333333333333333,2.0,27.475000000000005,0.5326666666666667,74.0
ErTe,0.9,Er1 Te1,60.0,62.5,1246.33,9.5,163.5,1.67,2.0,2.0,5.0,15.0,1.0,2.0,32.674166666649995,0.232,173.0
Eu(BiSe2)2,1.02,Eu1 Bi2 Se4,52.142857142857146,79.0,594.2571428571429,13.857142857142858,139.14285714285714,2.2035714285714283,2.0,3.142857142857143,8.571428571428571,18.714285714285715,2.0,3.0,29.434285714285718,0.4565714285714286,44.142857142857146
Eu(BiTe2)2,0.44,Eu1 Bi2 Te4,62.42857142857143,79.57142857142857,724.9200000000001,13.857142857142858,149.42857142857142,1.9464285714285714,2.0,3.142857142857143,8.571428571428571,18.714285714285715,2.0,3.0,34.4876190476,0.2651428571428572,123.0
Eu(DySe2)2,1.8,Eu1 Dy2 Se4,47.285714285714285,63.285714285714285,920.1428571428571,10.428571428571429,151.71428571428572,1.9749999999999999,2.0,2.2857142857142856,5.714285714285714,13.857142857142858,1.1428571428571428,3.2857142857142856,28.945714285714285,0.4565714285714286,96.14285714285714
Eu(ErSe2)2,1.7,Eu1 Er2 Se4,47.857142857142854,64.42857142857143,944.4285714285714,10.428571428571429,150.85714285714286,1.9807142857142854,2.0,2.2857142857142856,5.714285714285714,14.428571428571429,1.1428571428571428,2.7142857142857144,28.75857142857143,0.4565714285714286,96.14285714285714
Eu(GaS2)2,2.25,Eu1 Ga2 S4,27.0,75.0,464.89428571428573,13.285714285714286,123.14285714285714,2.1607142857142856,2.0,2.5714285714285716,2.857142857142857,8.428571428571429,2.5714285714285716,3.5714285714285716,25.33178571428571,1.2582857142857142,91.0
Eu(GaSe2)2,2.16,Eu1 Ga2 Se4,37.285714285714285,75.57142857142857,525.26,13.285714285714286,131.71428571428572,2.1435714285714282,2.0,2.5714285714285716,8.571428571428571,14.142857142857142,2.5714285714285716,3.5714285714285716,25.407857142857146,0.4565714285714286,59.0
Eu(GaTe2)2,1.7,Eu1 Ga2 Te4,47.57142857142857,76.14285714285714,655.9228571428572,13.285714285714286,142.0,1.8864285714285713,2.0,2.5714285714285716,8.571428571428571,14.142857142857142,2.5714285714285716,3.5714285714285716,30.461190476171428,0.2651428571428572,137.85714285714286