composition,gap expt,composition_pmg,MagpieData mean Number,MagpieData mean MendeleevNumber,MagpieData mean MeltingT,MagpieData mean Column,MagpieData mean CovalentRadius,MagpieData mean Electronegativity,MagpieData mean NsValence,MagpieData mean NpValence,MagpieData mean NdValence,MagpieData mean NValence,MagpieData mean NpUnfilled,MagpieData mean NUnfilled,MagpieData mean GSvolume_pa,MagpieData mean GSbandgap,MagpieData mean SpaceGroupNumber
Ca3N2,1.55,Ca3 N2,14.8,37.0,694.22,7.2,134.0,1.816,2.0,1.2,0.0,3.2,1.2,1.2,28.569499999999998,2.5748,212.6
Ca3Sb2,1.4,Ca3 Sb2,32.4,38.2,1030.512,7.2,161.2,1.42,2.0,1.2,4.0,7.2,1.2,1.2,35.286,0.0,201.4
Ca3Ti2(SiO4)3,1.65,Ca3 Ti2 Si3 O12,12.1,69.25,647.28,12.4,98.65,2.653,2.0,2.7,0.2,4.9,1.8,2.6,15.863499999999998,0.11595,94.4
Ca4Bi6O13,2.76,Ca4 Bi6 O13,29.652173913043477,72.82608695652173,366.9043478260869,13.304347826086957,106.52173913043478,2.645217391304348,2.0,3.0434782608695654,2.608695652173913,11.304347826086957,1.9130434782608696,1.9130434782608696,20.310652173913045,0.0,49.04347826086956
Ca5(Bi7O13)2,2.6,Ca5 Bi14 O26,32.666666666666664,77.8,324.91999999999996,14.133333333333333,103.73333333333333,2.7271111111111113,2.0,3.2444444444444445,3.111111111111111,12.71111111111111,2.088888888888889,2.088888888888889,19.708444444444446,0.0,35.666666666666664
Ca5B3O9F,6.53,Ca5 B3 O9 F1,10.88888888888889,62.611111111111114,731.4277777777778,11.666666666666666,99.05555555555556,2.5588888888888888,2.0,2.4444444444444446,0.0,4.444444444444445,1.8888888888888888,1.8888888888888888,16.77888888888889,0.36344444444444446,97.0
CaB6,4.5,Ca1 B6,7.142857142857143,62.714285714285715,2171.8571428571427,11.428571428571429,97.14285714285714,1.8914285714285715,2.0,0.8571428571428571,0.0,2.857142857142857,4.285714285714286,4.285714285714286,11.543571428571429,1.3062857142857143,174.42857142857142
CaF2,9.92,Ca1 F2,12.666666666666666,64.33333333333333,407.3333333333333,12.0,96.66666666666667,2.986666666666667,2.0,3.3333333333333335,0.0,5.333333333333333,0.6666666666666666,0.6666666666666666,19.061666666666667,1.3133333333333332,85.0
CaI2,5.98,Ca1 I2,42.0,66.33333333333333,629.5666666666667,12.0,151.33333333333334,2.106666666666667,2.0,3.3333333333333335,6.666666666666667,12.0,0.6666666666666666,0.6666666666666666,41.26666666666667,0.7080000000000001,117.66666666666667
CaMg2N2,3.25,Ca1 Mg2 N2,11.6,61.4,617.42,7.2,120.0,1.94,2.0,1.2,0.0,3.2,1.2,1.2,22.6175,2.5748,200.2
CaSnO3,4.4,Ca1 Sn1 O3,18.8,69.6,356.896,12.8,102.6,2.656,2.0,2.8,2.0,6.8,2.0,2.0,19.674,0.0,80.4
CaTaNO2,2.4,Ca1 Ta1 N1 O2,23.2,62.2,915.5300000000001,10.8,109.8,2.484,2.0,2.2,0.6,7.6,1.4,2.8,17.77375,1.2874,134.4
CaZnSO,3.7,Ca1 Zn1 S1 O1,18.5,62.75,562.71,11.5,117.25,2.1675,2.0,2.0,2.5,6.5,1.0,1.0,21.65546875,0.5505,125.25
Cd(GaS2)2,3.4,Cd1 Ga2 S4,24.857142857142858,81.42857142857143,393.3542857142857,14.571428571428571,115.42857142857143,2.232857142857143,2.0,2.5714285714285716,4.285714285714286,8.857142857142858,2.5714285714285716,2.5714285714285716,22.908214285714287,1.2582857142857142,86.0
Cd(In15Te23)2,1.17,Cd1 In30 Te46,50.77922077922078,83.8961038961039,606.8711688311688,14.779220779220779,139.63636363636363,1.97,2.0,2.779220779220779,10.0,14.779220779220779,3.142857142857143,3.142857142857143,30.472835497815584,0.2771948051948052,147.4805194805195
Cd(PS2)2,3.76,Cd1 P2 S4,20.285714285714285,84.0,397.46571428571434,15.142857142857142,111.14285714285714,2.3414285714285716,2.0,3.142857142857143,1.4285714285714286,6.571428571428571,2.0,2.0,23.96899659862857,1.7225714285714286,68.28571428571429
Cd0.01Ga0.99Sb0.99Te0.01,0.72,Cd0.01 Ga0.99 Sb0.99 Te0.01,41.089999999999996,79.50500000000001,603.89595,13.999999999999998,130.605,1.9296499999999996,2.0,2.0,10.0,13.999999999999998,3.9699999999999998,3.9699999999999998,25.2279541666665,0.00232,115.58
Cd0.01Hg0.99Se1,1.72,Cd0.01 Hg0.99 Se1,56.84,79.995,365.9595,14.0,126.06,2.27345,2.0,2.0,10.0,20.93,1.0,1.0,25.5500801724155,0.3995,90.14
Cd0.01In0.99Te0.01As0.99,0.76,Cd0.01 In0.99 Te0.01 As0.99,41.09,79.505,758.86065,14.0,130.60500000000002,1.9791500000000002,2.0,2.0,10.0,14.0,3.9699999999999998,3.9699999999999998,23.256616666666503,0.00232,152.70499999999998
Cd0.02In0.98Te0.02As0.98,0.73,Cd0.02 In0.98 Te0.02 As0.98,41.17999999999999,79.50999999999999,757.8463,14.0,130.70999999999998,1.9783,2.0,2.0,10.0,14.0,3.9400000000000004,3.9400000000000004,23.295733333333004,0.00464,152.91
Cd0.03In0.97Te0.03As0.97,0.71,Cd0.03 In0.97 Te0.03 As0.97,41.269999999999996,79.515,756.83195,14.0,130.815,1.9774500000000002,2.0,2.0,10.0,14.0,3.9099999999999997,3.9099999999999997,23.3348499999995,0.00696,153.11499999999998
Cd0.04In0.96Te0.04As0.96,0.69,Cd0.04 In0.96 Te0.04 As0.96,41.36,79.52,755.8176,14.0,130.92,1.9766,2.0,2.0,10.0,14.0,3.88,3.88,23.373966666666,0.00928,153.32
Cd0.05Ga0.95Sb0.95Te0.05,0.74,Cd0.05 Ga0.95 Sb0.95 Te0.05,41.449999999999996,79.525,606.09975,14.0,131.02499999999998,1.92825,2.0,2.0,10.0,14.0,3.8499999999999996,3.8499999999999996,25.3047708333325,0.011600000000000001,117.89999999999999
Cd0.05In0.95Te0.05As0.95,0.68,Cd0.05 In0.95 Te0.05 As0.95,41.449999999999996,79.525,754.8032499999999,14.0,131.025,1.9757500000000001,2.0,1.9999999999999998,10.0,14.0,3.8499999999999996,3.8499999999999996,23.4130833333325,0.011600000000000001,153.52499999999998
Cd0.06In0.94Te0.06As0.94,0.68,Cd0.06 In0.94 Te0.06 As0.94,41.54,79.53,753.7889,14.0,131.13,1.9748999999999999,2.0,2.0,9.999999999999998,14.0,3.8199999999999994,3.8199999999999994,23.452199999999,0.01392,153.73
Cd0.07In0.93Te0.07As0.93,0.68,Cd0.07 In0.93 Te0.07 As0.93,41.63,79.535,752.7745500000001,14.0,131.235,1.97405,2.0,2.0,10.0,14.0,3.79,3.79,23.491316666665504,0.01624,153.935
Cd0.1Ga0.9Sb0.9Te0.1,0.78,Cd0.1 Ga0.9 Sb0.9 Te0.1,41.9,79.55000000000001,608.8545000000001,14.000000000000002,131.55,1.9264999999999999,2.0,2.0,10.0,14.000000000000002,3.7,3.7,25.400791666665,0.023200000000000002,120.8
Cd0.1In0.9Te0.1As0.9,0.69,Cd0.1 In0.9 Te0.1 As0.9,41.900000000000006,79.55000000000001,749.7315000000001,14.0,131.55,1.9715000000000003,2.0,2.0,10.0,14.0,3.7,3.7,23.608666666665002,0.023200000000000002,154.55
Cd0.204Hg0.796Te1,0.06,Cd0.204 Hg0.796 Te1,62.736000000000004,80.398,515.1998,14.0,136.224,2.01838,2.0,2.0,10.0,19.572000000000003,1.0,1.0,29.4147159769962,0.232,161.856
Cd0.23Hg0.77Te1,0.12,Cd0.23 Hg0.77 Te1,62.32,80.385,519.8785,14.0,136.38,2.0143500000000003,2.0,2.0,10.0,19.39,1.0,1.0,29.340062356306497,0.232,162.22
Cd0.28Hg0.72Te1,0.21,Cd0.28 Hg0.72 Te1,61.519999999999996,80.36,528.876,14.0,136.68,2.0066,2.0,2.0,10.0,19.04,1.0,1.0,29.196497701134,0.232,162.92000000000002
Cd0.2Ga0.8Sb0.8Te0.2,0.8,Cd0.2 Ga0.8 Sb0.8 Te0.2,42.80000000000001,79.6,614.3639999999999,14.0,132.60000000000002,1.923,2.0,2.0,10.0,14.0,3.4000000000000004,3.4000000000000004,25.592833333330002,0.046400000000000004,126.60000000000001
Cd0.2In2.4Ag0.4Te4,0.42,Cd0.2 In2.4 Ag0.4 Te4,50.57142857142857,82.85714285714286,647.8365714285713,14.571428571428571,139.94285714285715,1.9688571428571429,1.942857142857143,2.6285714285714286,10.0,14.571428571428571,2.857142857142857,2.914285714285714,29.672619047599998,0.2651428571428572,152.91428571428574
Cd0.35Hg0.65Te1,0.28,Cd0.35 Hg0.65 Te1,60.4,80.325,541.4725,14.0,137.1,1.9957500000000001,2.0,2.0,10.0,18.55,1.0,1.0,28.9955071838925,0.232,163.9
Cd0.37Hg0.63Te1,0.35,Cd0.37 Hg0.63 Te1,60.08,80.315,545.0715,14.0,137.22,1.99265,2.0,2.0,10.0,18.41,1.0,1.0,28.9380813218235,0.232,164.18
Cd0.3Hg0.7Se1,1.1,Cd0.3 Hg0.7 Se1,52.2,79.85,418.145,14.0,127.8,2.2285,2.0,2.0,10.0,18.9,1.0,1.0,24.717405172415,0.3995,94.19999999999999
Cd0.3Hg0.7Te1,0.27,Cd0.3 Hg0.7 Te1,61.2,80.35,532.4749999999999,14.0,136.8,2.0035,2.0,2.0,10.0,18.9,1.0,1.0,29.139071839064997,0.232,163.2
Cd0.4Hg0.6Se1,0.95,Cd0.4 Hg0.6 Se1,50.6,79.8,436.14,14.0,128.4,2.213,2.0,2.0,10.0,18.2,1.0,1.0,24.43027586207,0.3995,95.6
Cd0.5Hg0.5Se1,0.8,Cd0.5 Hg0.5 Se1,49.0,79.75,454.135,14.0,129.0,2.1975,2.0,2.0,10.0,17.5,1.0,1.0,24.143146551725003,0.3995,97.0
Cd0.5In2.25Ag0.25Te4,0.39,Cd0.5 In2.25 Ag0.25 Te4,50.57142857142857,82.85714285714286,637.6314285714286,14.571428571428571,139.96428571428572,1.9617857142857142,1.9642857142857142,2.607142857142857,10.0,14.571428571428571,2.75,2.7857142857142856,29.638333333314282,0.2651428571428572,153.42857142857142
Cd0.5In2.2Ag0.4Te4,0.19,Cd0.5 In2.2 Ag0.4 Te4,50.507042253521135,82.53521126760563,651.714366197183,14.507042253521128,140.05633802816902,1.9623943661971832,1.9436619718309862,2.563380281690141,10.0,14.507042253521128,2.676056338028169,2.732394366197183,29.395046948338027,0.26140845070422536,155.04225352112675
Cd0.6Hg0.4Se1,0.7,Cd0.6 Hg0.4 Se1,47.4,79.7,472.13,14.0,129.6,2.182,2.0,2.0,10.0,16.8,1.0,1.0,23.856017241380002,0.3995,98.4
Cd0.75In2.1Ag0.2Te4,0.54,Cd0.75 In2.1 Ag0.2 Te4,50.53900709219858,82.6950354609929,636.2788652482268,14.53900709219858,140.02836879432624,1.956241134751773,1.9716312056737588,2.5673758865248226,9.999999999999998,14.53900709219858,2.6241134751773045,2.6524822695035457,29.487458628822694,0.2632624113475177,154.66666666666666
Cd0.7Hg0.3Se1,0.55,Cd0.7 Hg0.3 Se1,45.8,79.65,490.125,14.0,130.2,2.1665,2.0,2.0,10.0,16.1,1.0,1.0,23.568887931035,0.3995,99.79999999999998
Cd0.8Hg0.2Se1,0.45,Cd0.8 Hg0.2 Se1,44.2,79.6,508.12,14.0,130.8,2.151,2.0,2.0,10.0,15.4,1.0,1.0,23.281758620690002,0.3995,101.20000000000002
Cd0.8In2.1Ag0.1Te4,0.29,Cd0.8 In2.1 Ag0.1 Te4,50.57142857142857,82.85714285714286,627.4262857142858,14.571428571428571,139.9857142857143,1.9547142857142856,1.9857142857142858,2.585714285714286,10.0,14.571428571428571,2.642857142857143,2.6571428571428575,29.60404761902857,0.2651428571428572,153.94285714285712
Cd0.99Ga0.01Sb0.01Te0.99,1.35,Cd0.99 Ga0.01 Sb0.01 Te0.99,49.91,79.99499999999999,657.88905,14.0,140.89499999999998,1.89535,2.0,2.0,10.0,14.0,1.03,1.03,27.1099624999835,0.22968000000000002,172.42
Cd0.99Hg0.01Se1,0.29,Cd0.99 Hg0.01 Se1,41.16,79.505,542.3105,14.0,131.94,2.12155,2.0,2.0,10.0,14.07,1.0,1.0,22.7362129310345,0.3995,103.86
Cd0.9Hg0.1Se1,0.35,Cd0.9 Hg0.1 Se1,42.6,79.55,526.115,14.0,131.39999999999998,2.1355,2.0,2.0,10.0,14.7,1.0,1.0,22.994629310345,0.3995,102.6
Cd12Ge17(B4O29)2,4.29,Cd12 Ge17 B8 O58,17.094736842105263,82.15789473684211,523.0193684210527,14.884210526315789,87.03157894736842,2.8451578947368423,2.0,2.8842105263157896,3.0526315789473686,7.936842105263158,2.357894736842105,2.357894736842105,12.742052631578947,0.1968736842105263,86.07368421052631
Cd1Se0.01S0.99,2.4,Cd1 Se0.01 S0.99,32.09,79.005,491.81820000000005,14.0,124.57499999999999,2.13485,2.0,2.0,5.05,9.05,1.0,1.0,22.641603125,1.093985,131.72
Cd1Se0.2S0.8,2.23,Cd1 Se0.2 S0.8,33.8,79.1,501.85400000000004,14.0,126.0,2.132,2.0,2.0,6.0,10.0,1.0,1.0,22.65425,0.9607,126.4
Cd1Se0.35S0.65,2.13,Cd1 Se0.35 S0.65,35.15,79.17500000000001,509.77700000000004,14.0,127.125,2.1297499999999996,2.0,2.0,6.75,10.75,1.0,1.0,22.664234375,0.855475,122.2
Cd1Se0.45S0.55,2.05,Cd1 Se0.45 S0.55,36.05,79.22500000000001,515.059,14.0,127.875,2.12825,2.0,2.0,7.25,11.25,1.0,1.0,22.670890625000002,0.785325,119.4
Cd1Se0.65S0.35,1.93,Cd1 Se0.65 S0.35,37.849999999999994,79.32499999999999,525.623,14.0,129.375,2.12525,2.0,2.0,8.25,12.25,1.0,1.0,22.684203125000003,0.645025,113.8
Cd1Se0.99S0.01,1.68,Cd1 Se0.99 S0.01,40.91,79.495,543.5817999999999,14.0,131.925,2.1201499999999998,2.0,2.0,9.95,13.95,1.0,1.0,22.706834375,0.406515,104.28
Cd2InAgTe3,0.47,Cd2 In1 Ag1 Te3,49.714285714285715,78.57142857142857,717.3000000000001,13.714285714285714,141.28571428571428,1.912857142857143,1.8571428571428572,1.8571428571428572,10.0,13.714285714285714,1.5714285714285714,1.7142857142857142,26.26714285712857,0.19885714285714287,172.57142857142858
Cd2InCuTe3,0.7,Cd2 In1 Cu1 Te3,47.142857142857146,78.42857142857143,734.8485714285715,13.714285714285714,139.42857142857142,1.9085714285714288,1.8571428571428572,1.8571428571428572,10.0,13.714285714285714,1.5714285714285714,1.7142857142857142,25.515714285699996,0.19885714285714287,172.57142857142858
Cd2InCuTe4,0.85,Cd2 In1 Cu1 Te4,47.75,79.875,733.325,14.0,139.25,1.9325,1.875,2.125,10.0,14.0,1.625,1.75,26.671666666649998,0.232,170.0
Cd3AgPS6,2.56,Cd3 Ag1 P1 S6,27.454545454545453,80.54545454545455,515.0045454545455,14.363636363636363,119.45454545454545,2.2427272727272727,1.9090909090909092,2.4545454545454546,3.6363636363636362,8.0,1.3636363636363635,1.4545454545454546,22.918771645018182,1.3488181818181817,111.72727272727273
Cd3Bi(PO4)3,3.9,Cd3 Bi1 P3 O12,19.36842105263158,83.63157894736842,207.18736842105264,15.157894736842104,89.10526315789474,2.891578947368421,2.0,3.1578947368421053,2.1052631578947367,8.0,1.894736842105263,1.894736842105263,14.126616541347369,0.2565789473684211,39.1578947368421
Cd3Bi2,0.2,Cd3 Bi2,62.0,76.4,574.292,13.2,145.6,1.8219999999999998,2.0,1.2,10.0,18.8,1.2,1.2,24.877000000000002,0.0,121.2
Cd3In2(Te2S)2,1.23,Cd3 In2 Te4 S2,43.81818181818182,81.45454545454545,573.5927272727272,14.363636363636363,134.36363636363637,2.0172727272727276,2.0,2.3636363636363638,8.181818181818182,12.545454545454545,2.0,2.0,27.0574621212,0.5690909090909091,146.1818181818182
Cd3P2,0.5,Cd3 P2,34.8,75.2,483.45200000000006,13.2,129.2,1.89,2.0,1.2,6.0,9.2,1.2,1.2,20.72509523808,0.65,117.2
Cd3Sb2,0.3,Cd3 Sb2,49.2,76.0,718.0440000000001,13.2,142.0,1.834,2.0,1.2,10.0,13.2,1.2,1.2,24.320999999999998,0.0,182.8
Cd3Te2MoO10,3.81,Cd3 Te2 Mo1 O10,23.125,81.875,416.99875,14.625,95.125,2.864375,1.9375,3.0,3.4375,8.375,1.5,1.875,14.6719791666625,0.058,77.1875
Cd4P2Br3,2.19,Cd4 P2 Br3,36.333333333333336,81.22222222222223,423.2088888888889,14.333333333333334,127.77777777777777,2.2244444444444444,2.0,2.3333333333333335,7.777777777777778,12.11111111111111,1.0,1.0,23.506719576711113,0.8467777777777779,108.0
Cd4P2Cl3,2.17,Cd4 P2 Cl3,30.333333333333332,80.88888888888889,391.8088888888889,14.333333333333334,121.77777777777777,2.2911111111111113,2.0,2.3333333333333335,4.444444444444445,8.777777777777779,1.0,1.0,21.845886243377777,1.1921111111111111,108.0
Cd4P2I3,2.17,Cd4 P2 I3,42.333333333333336,81.55555555555556,463.558888888889,14.333333333333334,134.11111111111111,2.1244444444444444,2.0,2.3333333333333335,7.777777777777778,12.11111111111111,1.0,1.0,28.01838624337778,0.7151111111111111,108.0
Cd4Sb2I3,1.83,Cd4 Sb2 I3,50.333333333333336,82.0,593.8877777777778,14.333333333333334,141.22222222222223,2.0933333333333333,2.0,2.3333333333333335,10.0,14.333333333333334,1.0,1.0,30.01611111111111,0.354,144.44444444444446
Cd4Sb3,1.25,Cd4 Sb3,49.285714285714285,76.42857142857143,726.8885714285715,13.285714285714286,141.85714285714286,1.8442857142857143,2.0,1.2857142857142858,10.0,13.285714285714286,1.2857142857142858,1.2857142857142858,24.665714285714284,0.0,182.0
Cd5Ga2(Te3S)2,1.29,Cd5 Ga2 Te6 S2,43.06666666666667,80.93333333333334,579.3066666666667,14.266666666666667,133.46666666666667,1.9886666666666668,2.0,2.2666666666666666,8.666666666666666,12.933333333333334,1.7333333333333334,1.7333333333333334,26.35624999998667,0.4792,143.33333333333334
Cd6P7,0.85,Cd6 P7,30.23076923076923,77.0,445.10923076923075,13.615384615384615,124.07692307692308,1.959230769230769,2.0,1.6153846153846154,4.615384615384615,8.23076923076923,1.6153846153846154,1.6153846153846154,21.15089743587692,0.875,90.61538461538461
Cd8B5O15F,3.14,Cd8 B5 O15 F1,18.551724137931036,79.93103448275862,598.94,14.413793103448276,90.3103448275862,2.7344827586206897,2.0,2.413793103448276,2.7586206896551726,7.172413793103448,1.9310344827586208,1.9310344827586208,11.658793103448277,0.3306896551724138,88.86206896551724
CdAg2(PS3)2,2.49,Cd1 Ag2 P2 S6,24.363636363636363,81.27272727272727,548.0763636363637,14.545454545454545,116.18181818181819,2.31,1.8181818181818181,2.727272727272727,2.727272727272727,7.2727272727272725,1.6363636363636365,1.8181818181818181,22.910611471854544,1.4965454545454546,97.0909090909091
CdAg2GeS4,2.32,Cd1 Ag2 Ge1 S4,29.75,78.875,728.615,14.0,121.75,2.235,1.75,2.25,5.0,9.0,1.5,1.75,22.2884375,1.1488749999999999,143.625
CdBiClO2,3.08,Cd1 Bi1 Cl1 O2,32.8,84.8,283.96399999999994,15.2,105.2,2.75,2.0,3.2,4.0,12.0,1.6,1.6,19.0305,0.4986,58.8
CdBr2,4.47,Cd1 Br2,39.333333333333336,86.66666666666667,375.27333333333337,15.333333333333334,128.0,2.5366666666666666,2.0,3.3333333333333335,10.0,15.333333333333334,0.6666666666666666,0.6666666666666666,26.151666666666667,0.9713333333333334,107.33333333333333
CdCl2,5.7,Cd1 Cl2,27.333333333333332,86.0,312.47333333333336,15.333333333333334,116.0,2.67,2.0,3.3333333333333335,3.3333333333333335,8.666666666666666,0.6666666666666666,0.6666666666666666,22.83,1.662,107.33333333333333
CdCu(SeO3)2,3.33,Cd1 Cu1 Se2 O6,19.3,83.4,326.879,15.1,91.2,2.933,1.9,3.2,4.0,9.1,1.6,1.7,13.7035,0.1598,51.9
CdCu2GeS4,2.05,Cd1 Cu2 Ge1 S4,25.25,78.625,759.325,14.0,118.5,2.2275,1.75,2.25,5.0,9.0,1.5,1.75,20.9734375,1.1488749999999999,143.625
CdCu2GeSe4,1.2,Cd1 Cu2 Ge1 Se4,34.25,79.125,812.145,14.0,126.0,2.2125,1.75,2.25,10.0,14.0,1.5,1.75,21.04,0.447375,115.625
CdCu2SnS4,1.37,Cd1 Cu2 Sn1 S4,27.5,78.75,671.0350000000001,14.0,120.875,2.22125,1.75,2.25,5.0,9.0,1.5,1.75,22.2584375,1.101,133.125
CdCu2SnSe4,0.96,Cd1 Cu2 Sn1 Se4,36.5,79.25,723.855,14.0,128.375,2.20625,1.75,2.25,10.0,14.0,1.5,1.75,22.325000000000003,0.3995,105.125
CdF2,6.0,Cd1 F2,22.0,85.33333333333333,233.74,15.333333333333334,86.0,3.216666666666667,2.0,3.3333333333333335,3.3333333333333335,8.666666666666666,0.6666666666666666,0.6666666666666666,12.969999999999999,1.3133333333333332,74.66666666666667
CdHIO4,4.35,Cd1 H1 I1 O4,19.142857142857142,86.57142857142857,173.46857142857144,13.428571428571429,82.57142857142857,2.9014285714285717,1.8571428571428572,3.0,2.857142857142857,7.714285714285714,1.2857142857142858,1.4285714285714286,15.077857142857143,1.2735714285714284,71.42857142857143
CdHg4(AsI2)2,1.45,Cd1 Hg4 As2 I4,58.72727272727273,82.36363636363636,478.08181818181816,14.363636363636363,133.27272727272728,2.2445454545454546,2.0,2.3636363636363638,10.0,19.454545454545453,0.9090909090909091,0.9090909090909091,30.623213166145455,0.3861818181818182,131.45454545454547
CdHg6(As2Br3)2,1.89,Cd1 Hg6 As4 Br6,51.1764705882353,82.47058823529412,467.9376470588236,14.470588235294118,125.41176470588235,2.3629411764705885,2.0,2.4705882352941178,10.0,19.41176470588235,1.0588235294117647,1.0588235294117647,25.6765010142,0.5142352941176471,131.64705882352942
CdI2,3.8,Cd1 I2,51.333333333333336,87.33333333333333,455.97333333333336,15.333333333333334,140.66666666666666,2.3366666666666664,2.0,3.3333333333333335,10.0,15.333333333333334,0.6666666666666666,0.6666666666666666,35.175000000000004,0.7080000000000001,107.33333333333333
CdIClO3,4.3,Cd1 I1 Cl1 O3,23.666666666666668,86.83333333333333,219.51166666666668,15.666666666666666,97.16666666666667,2.9716666666666662,2.0,3.6666666666666665,3.3333333333333335,9.0,1.3333333333333333,1.3333333333333333,19.05375,0.5924999999999999,59.666666666666664
CdIn,0.6,Cd1 In1,48.5,72.5,511.985,12.5,143.0,1.7349999999999999,2.0,0.5,10.0,12.5,2.5,2.5,21.8775,0.0,166.5
CdIn8Te13,1.02,Cd1 In8 Te13,50.72727272727273,83.63636363636364,610.3090909090909,14.727272727272727,139.72727272727272,1.965,2.0,2.727272727272727,10.0,14.727272727272727,3.0,3.0,30.249924242404543,0.2741818181818182,149.1818181818182
CdInCuSe3,1.66,Cd1 In1 Cu1 Se3,38.0,79.33333333333333,643.9566666666666,14.0,129.66666666666666,2.17,1.8333333333333333,2.1666666666666665,10.0,14.0,1.8333333333333333,2.0,22.0975,0.3995,100.0
CdO,2.3,Cd1 O1,28.0,78.5,324.51,14.0,105.0,2.565,2.0,2.0,5.0,9.0,1.0,1.0,14.3,0.0,103.0
CdP4PbO12,4.85,Cd1 P4 Pb1 O12,15.88888888888889,84.83333333333333,173.42388888888888,15.444444444444445,83.88888888888889,3.0033333333333334,2.0,3.4444444444444446,1.1111111111111112,7.333333333333333,2.2222222222222223,2.2222222222222223,13.730330687822223,0.3611111111111111,31.72222222222222
CdSb2Se3Br2,1.4,Cd1 Sb2 Se3 Br2,40.25,87.125,551.9225,15.5,127.75,2.42,2.0,3.5,10.0,15.5,1.75,1.75,27.416875,0.663875,87.0
CdSb4MoO10,3.4,Cd1 Sb4 Mo1 O10,23.375,83.125,478.33375,14.875,94.625,2.9031249999999997,1.9375,3.25,3.4375,8.625,2.0,2.375,15.7796875,0.0,75.4375
CdSnO3,3.0,Cd1 Sn1 O3,24.4,82.2,252.73999999999995,14.8,96.2,2.794,2.0,2.8,4.0,8.8,2.0,2.0,16.019,0.0,74.2