composition,gap expt,composition_pmg,MagpieData mean Number,MagpieData mean MendeleevNumber,MagpieData mean MeltingT,MagpieData mean Column,MagpieData mean CovalentRadius,MagpieData mean Electronegativity,MagpieData mean NsValence,MagpieData mean NpValence,MagpieData mean NdValence,MagpieData mean NValence,MagpieData mean NpUnfilled,MagpieData mean NUnfilled,MagpieData mean GSvolume_pa,MagpieData mean GSbandgap,MagpieData mean SpaceGroupNumber
TeAs,0.74,Te1 As1,42.5,87.0,906.3299999999999,15.5,128.5,2.14,2.0,3.5,10.0,15.5,2.5,2.5,28.469166666649997,0.232,159.0
TeI,1.1,Te1 I1,52.5,93.0,554.755,16.5,138.5,2.38,2.0,4.5,10.0,16.5,1.5,1.5,38.88916666665,0.763,108.0
TeI4,1.1,Te1 I4,52.8,94.8,454.012,16.8,138.8,2.548,2.0,4.8,10.0,16.8,1.2,1.2,41.36466666666,0.9424000000000001,81.6
TeO2,3.0,Te1 O2,22.666666666666668,88.0,277.42,16.0,90.0,2.9933333333333336,2.0,4.0,3.3333333333333335,9.333333333333334,2.0,2.0,17.657777777766665,0.15466666666666667,58.666666666666664
TePb3Cl4O3,3.79,Te1 Pb3 Cl4 O3,35.45454545454545,88.18181818181819,306.8445454545454,15.818181818181818,107.45454545454545,2.9136363636363636,2.0,3.8181818181818183,3.6363636363636362,13.272727272727273,2.1818181818181817,2.1818181818181817,22.218030303027273,0.9487272727272728,101.72727272727273
TeSe,1.58,Te1 Se1,43.0,89.5,608.3299999999999,16.0,129.0,2.325,2.0,4.0,10.0,16.0,2.0,2.0,30.34166666665,0.6315000000000001,83.0
Th2GeSe2,1.98,Th2 Ge1 Se2,56.0,57.8,1249.08,10.4,154.4,1.9419999999999997,2.0,2.0,6.8,10.8,1.6,4.8,27.916999999999994,0.3962,140.6
Th2Se5,0.37,Th2 Se5,50.0,68.14285714285714,930.8571428571429,12.285714285714286,144.57142857142858,2.1928571428571426,2.0,2.857142857142857,7.714285714285714,12.571428571428571,1.4285714285714286,3.7142857142857144,27.762857142857147,0.5707142857142857,74.28571428571429
ThSO,2.22,Th1 S1 O1,38.0,63.666666666666664,822.0533333333334,11.666666666666666,125.66666666666667,2.44,2.0,2.6666666666666665,0.6666666666666666,5.333333333333333,1.3333333333333333,4.0,22.420625,0.734,102.33333333333333
ThSeO,1.65,Th1 Se1 O1,44.0,64.0,857.2666666666668,11.666666666666666,130.66666666666666,2.4299999999999997,2.0,2.6666666666666665,4.0,8.666666666666666,1.3333333333333333,4.0,22.465,0.26633333333333337,83.66666666666667
ThTeO,1.45,Th1 Te1 O1,50.0,64.33333333333333,933.4866666666667,11.666666666666666,136.66666666666666,2.28,2.0,2.6666666666666665,4.0,8.666666666666666,1.3333333333333333,4.0,25.412777777766664,0.15466666666666667,129.66666666666666
Ti(Bi3O5)4,3.09,Ti1 Bi12 O20,35.696969696969695,85.3030303030303,289.9939393939394,15.272727272727273,98.66666666666667,2.866060606060606,2.0,3.515151515151515,3.696969696969697,14.303030303030303,2.303030303030303,2.5454545454545454,18.005757575757578,0.0,17.515151515151516
Ti1C0.9,0.3,Ti1 C0.9,14.421052631578947,59.10526315789474,2832.4736842105267,8.73684210526316,120.21052631578948,2.018421052631579,2.0,0.9473684210526316,1.0526315789473684,4.0,1.8947368421052633,6.105263157894737,11.455789473684211,2.129684210526316,194.00000000000003
Ti6H2O13,3.4,Ti6 H2 O13,11.333333333333334,74.9047619047619,589.8295238095238,11.142857142857142,89.52380952380952,2.779047619047619,1.9047619047619047,2.4761904761904763,0.5714285714285714,4.9523809523809526,1.2380952380952381,3.619047619047619,11.035,0.7479047619047619,81.33333333333333
TiBi25O39,3.1,Ti1 Bi25 O39,37.06153846153846,85.93846153846154,272.12615384615384,15.430769230769231,98.98461538461538,2.8646153846153846,2.0,3.5538461538461537,3.876923076923077,14.815384615384616,2.353846153846154,2.476923076923077,18.392846153846158,0.0,14.8
TiCoSb,0.95,Ti1 Co1 Sb1,33.333333333333336,62.0,1537.5933333333332,9.333333333333334,141.66666666666666,1.8233333333333333,2.0,1.0,6.333333333333333,9.333333333333334,1.0,4.666666666666667,19.498333333333335,0.0,184.66666666666666
TiFe2Si,0.4,Ti1 Fe2 Si1,22.0,57.75,1812.5,8.5,133.75,1.775,2.0,0.5,3.5,6.0,1.0,5.0,14.6475,0.19325,219.75
TiNiSb,0.42,Ti1 Ni1 Sb1,33.666666666666664,63.0,1524.26,9.666666666666666,141.0,1.8333333333333333,2.0,1.0,6.666666666666667,9.666666666666666,1.0,4.333333333333333,19.523333333333333,0.0,195.0
TiO2,3.3,Ti1 O2,12.666666666666666,72.33333333333333,683.5333333333333,12.0,97.33333333333333,2.8066666666666666,2.0,2.6666666666666665,0.6666666666666666,5.333333333333333,1.3333333333333333,4.0,11.633333333333335,0.0,72.66666666666667
TiS2,1.95,Ti1 S2,18.0,73.0,905.9066666666668,12.0,123.33333333333333,2.2333333333333334,2.0,2.6666666666666665,0.6666666666666666,5.333333333333333,1.3333333333333333,4.0,22.754583333333333,1.468,111.33333333333333
TiS3,0.9,Ti1 S3,17.5,76.75,776.52,13.0,118.75,2.3200000000000003,2.0,3.0,0.5,5.5,1.5,3.5,23.51265625,1.6515,101.0
TiSe2,1.55,Ti1 Se2,30.0,73.66666666666667,976.3333333333334,12.0,133.33333333333334,2.2133333333333334,2.0,2.6666666666666665,7.333333333333333,12.0,1.3333333333333333,4.0,22.843333333333334,0.5326666666666667,74.0
TiTe2,1.0,Ti1 Te2,42.0,74.33333333333333,1128.7733333333333,12.0,145.33333333333334,1.9133333333333333,2.0,2.6666666666666665,7.333333333333333,12.0,1.3333333333333333,4.0,28.738888888866665,0.30933333333333335,166.0
TiTlPS5,1.3,Ti1 Tl1 P1 S5,24.75,80.25,597.1375,14.0,117.125,2.28125,2.0,3.0,1.5,8.25,2.25,3.25,24.3880766369,1.579375,92.5
TiTlS2,1.0,Ti1 Tl1 S2,33.75,73.75,823.6800000000001,12.25,128.75,2.08,2.0,2.25,3.0,10.75,2.25,4.25,23.7934375,1.101,132.0
TiTlSe2,0.56,Ti1 Tl1 Se2,42.75,74.25,876.5,12.25,136.25,2.065,2.0,2.25,8.0,15.75,2.25,4.25,23.86,0.3995,104.0
Tl0.001Te1Pb0.999,0.3,Tl0.001 Te1 Pb0.999,66.99950000000001,85.4975,661.623195,14.999500000000001,141.9995,2.214645,2.0,2.9995000000000003,10.0,21.9995,3.0004999999999997,3.0004999999999997,31.43606666665,0.232,188.4845
Tl0.005Te1Pb0.995,0.48,Tl0.005 Te1 Pb0.995,66.9975,85.4875,661.575975,14.9975,141.9975,2.2132250000000004,2.0,2.9975,10.0,21.997500000000002,3.0025,3.0025,31.433666666649998,0.232,188.4225
Tl0.01Te1Pb0.99,0.59,Tl0.01 Te1 Pb0.99,66.995,85.475,661.51695,14.995,141.995,2.21145,2.0,2.995,10.0,21.994999999999997,3.005,3.005,31.430666666649998,0.232,188.345
Tl0.04Te1Pb0.96,0.57,Tl0.04 Te1 Pb0.96,66.98,85.4,661.1628000000001,14.98,141.98000000000002,2.2008,2.0,2.98,10.0,21.979999999999997,3.02,3.02,31.412666666649997,0.232,187.88
Tl0.07Te1Pb0.93,0.54,Tl0.07 Te1 Pb0.93,66.965,85.32499999999999,660.80865,14.965,141.965,2.19015,2.0,2.9650000000000003,10.0,21.965000000000003,3.035,3.035,31.394666666649997,0.232,187.41500000000002
Tl2.35Sb8.65Se14,0.6,Tl2.35 Sb8.65 Se14,44.3,86.39399999999999,643.5858800000001,15.372,128.924,2.2895799999999995,2.0,3.3720000000000003,10.0,16.688,2.628,2.628,27.964499999999997,0.44744,83.512
Tl2BiP2S7,1.8,Tl2 Bi1 P2 S7,32.25,85.0,420.96000000000004,15.25,115.58333333333333,2.3083333333333336,2.0,3.25,2.5,11.25,2.75,2.75,26.03488343253333,1.5553333333333335,74.5
Tl2Cu2SnS4,1.4,Tl2 Cu2 Sn1 S4,37.111111111111114,79.11111111111111,658.6733333333333,14.0,123.66666666666667,2.1466666666666665,1.7777777777777777,2.2222222222222223,5.555555555555555,12.666666666666666,2.4444444444444446,2.6666666666666665,23.599166666666665,0.9786666666666667,139.88888888888889
Tl2GeTe3,0.36,Tl2 Ge1 Te3,58.333333333333336,83.5,755.5633333333334,14.666666666666666,137.33333333333334,1.925,2.0,2.6666666666666665,10.0,19.333333333333332,3.3333333333333335,3.3333333333333335,30.185833333316666,0.29583333333333334,178.16666666666666
Tl2Hg3S4,2.05,Tl2 Hg3 S4,51.77777777777778,79.66666666666667,378.93333333333334,14.0,122.88888888888889,2.173333333333334,2.0,2.0,5.555555555555555,17.333333333333332,2.0,2.0,25.853362068966664,0.9786666666666667,129.55555555555554
Tl2Hg3Se4,1.57,Tl2 Hg3 Se4,59.77777777777778,80.11111111111111,425.88444444444445,14.0,129.55555555555554,2.1599999999999997,2.0,2.0,10.0,21.77777777777778,2.0,2.0,25.912528735633334,0.35511111111111116,104.66666666666667
Tl2Hg3Te4,0.9,Tl2 Hg3 Te4,67.77777777777777,80.55555555555556,527.5111111111112,14.0,137.55555555555554,1.96,2.0,2.0,10.0,21.77777777777778,2.0,2.0,29.842899105988888,0.20622222222222222,166.0
Tl2InGaSe4,2.05,Tl2 In1 Ga1 Se4,47.25,82.125,482.8325,14.5,129.25,2.12875,2.0,2.5,10.0,18.0,3.5,3.5,25.0771875,0.3995,80.875
Tl2InGaTe4,0.88,Tl2 In1 Ga1 Te4,56.25,82.625,597.1625,14.5,138.25,1.90375,2.0,2.5,10.0,18.0,3.5,3.5,29.49885416665,0.232,149.875
Tl2O3,2.25,Tl2 O3,37.2,82.6,263.68,14.8,97.6,2.712,2.0,2.8,4.0,14.4,3.2,3.2,16.227,0.0,84.8
Tl2PAuS4,2.2,Tl2 P1 Au1 S4,40.0,81.625,545.25875,14.5,119.125,2.28625,1.875,2.625,3.75,13.5,2.625,2.75,24.5297172619,1.304125,111.875
Tl2S,1.0,Tl2 S1,59.333333333333336,80.0,514.12,14.0,131.66666666666666,1.9400000000000002,2.0,2.0,6.666666666666667,20.0,4.0,4.0,26.535625,0.734,152.66666666666666
Tl2Se,0.37,Tl2 Se1,65.33333333333333,80.33333333333333,549.3333333333334,14.0,136.66666666666666,1.93,2.0,2.0,10.0,23.333333333333332,4.0,4.0,26.580000000000002,0.26633333333333337,134.0
Tl2Te3As2Se,0.67,Tl2 Te3 As2 Se1,52.25,84.875,749.4975,15.0,132.75,2.0562500000000004,2.0,3.0,10.0,18.5,3.0,3.0,28.5474999999875,0.27387500000000004,148.75
Tl2TeBr6,2.06,Tl2 Te1 Br6,47.111111111111114,90.22222222222223,385.71777777777777,16.0,127.55555555555556,2.5666666666666664,2.0,4.0,10.0,19.11111111111111,2.0,2.0,29.495925925922222,1.022888888888889,102.66666666666667
Tl2TeI6,1.47,Tl2 Te1 I6,59.111111111111114,90.88888888888889,466.4177777777778,16.0,140.22222222222223,2.3666666666666667,2.0,4.0,10.0,19.11111111111111,2.0,2.0,38.51925925925556,0.7595555555555555,102.66666666666667
Tl2TeS3,1.6,Tl2 Te1 S3,43.666666666666664,84.33333333333333,506.95666666666665,15.0,123.83333333333333,2.18,2.0,3.0,5.0,14.666666666666666,3.0,3.0,27.657326388883334,1.1783333333333335,125.0
Tl3AsSe3,1.3,Tl3 As1 Se3,54.0,82.71428571428571,614.7142857142857,14.571428571428571,130.57142857142858,2.0985714285714288,2.0,2.5714285714285716,10.0,20.571428571428573,3.4285714285714284,3.4285714285714284,25.809285714285718,0.34242857142857147,112.85714285714286
Tl4CdI6,2.8,Tl4 Cd1 I6,62.72727272727273,86.36363636363636,474.8472727272728,15.090909090909092,141.63636363636363,2.193636363636364,2.0,3.090909090909091,10.0,20.181818181818183,2.3636363636363638,2.3636363636363638,35.02045454545455,0.5792727272727273,123.0909090909091
Tl4CuTeO6,2.2,Tl4 Cu1 Te1 O6,37.75,81.66666666666667,393.1025,14.583333333333334,103.83333333333333,2.5933333333333333,1.9166666666666667,2.6666666666666665,5.0,14.25,2.8333333333333335,2.9166666666666665,17.341944444441665,0.03866666666666667,102.08333333333333
Tl4In3GaS8,2.63,Tl4 In3 Ga1 S8,39.375,81.6875,437.94,14.5,123.0,2.141875,2.0,2.5,5.0,13.0,3.5,3.5,25.34828125,1.101,113.5625
Tl6Cu(TeO5)2,2.3,Tl6 Cu1 Te2 O10,36.78947368421053,82.63157894736842,358.5836842105263,14.789473684210526,102.0,2.643157894736842,1.9473684210526316,2.8421052631578947,4.7368421052631575,13.947368421052632,2.8421052631578947,2.8947368421052633,17.531929824557896,0.048842105263157895,95.42105263157895
TlAgSe2,0.72,Tl1 Ag1 Se2,49.0,79.75,699.9825000000001,14.0,132.5,2.1624999999999996,1.75,2.25,10.0,17.5,2.25,2.5,23.77,0.3995,111.75
TlAgTe2,0.1,Tl1 Ag1 Te2,58.0,80.25,814.3125,14.0,141.5,1.9375,1.75,2.25,10.0,17.5,2.25,2.5,28.191666666649997,0.232,180.75
TlAsS2,2.15,Tl1 As1 S2,36.5,84.0,610.9300000000001,15.0,118.5,2.24,2.0,3.0,5.0,13.5,3.0,3.0,25.1646875,1.101,125.0
TlAsSe2,1.35,Tl1 As1 Se2,45.5,84.5,663.75,15.0,126.0,2.225,2.0,3.0,10.0,18.5,3.0,3.0,25.231250000000003,0.3995,97.0
TlBiTe2,0.12,Tl1 Bi1 Te2,67.0,85.5,641.6800000000001,15.0,142.25,1.96,2.0,3.0,10.0,22.0,3.0,3.0,32.346666666649995,0.232,127.5
TlBiTe3,0.5,Tl1 Bi1 Te3,64.0,86.4,657.876,15.2,141.4,1.9880000000000002,2.0,3.2,10.0,20.8,2.8,2.8,32.82999999998,0.27840000000000004,132.4
TlCdS2,1.5,Tl1 Cd1 S2,40.25,80.5,486.985,14.25,124.75,2.1175,2.0,2.25,5.0,12.75,2.25,2.25,24.494687499999998,1.101,132.0
TlCr5(Se3S)2,0.75,Tl1 Cr5 Se6 S2,31.214285714285715,73.64285714285714,1086.98,12.214285714285714,126.42857142857143,2.17,1.6428571428571428,2.357142857142857,6.785714285714286,11.785714285714286,1.5,3.642857142857143,20.710982142857144,0.657,111.64285714285714
TlCr5(SeS)4,0.85,Tl1 Cr5 Se4 S4,28.642857142857142,73.5,1071.8885714285714,12.214285714285714,124.28571428571429,2.174285714285714,1.6428571428571428,2.357142857142857,5.357142857142857,10.357142857142858,1.5,3.642857142857143,20.691964285714285,0.8574285714285714,119.64285714285714
TlCr5(SeS3)2,0.94,Tl1 Cr5 Se2 S6,26.071428571428573,73.35714285714286,1056.797142857143,12.214285714285714,122.14285714285714,2.1785714285714284,1.6428571428571428,2.357142857142857,3.9285714285714284,8.928571428571429,1.5,3.642857142857143,20.67294642857143,1.0578571428571428,127.64285714285714
TlCr5S8,1.01,Tl1 Cr5 S8,23.5,73.21428571428571,1041.7057142857143,12.214285714285714,120.0,2.182857142857143,1.6428571428571428,2.357142857142857,2.5,7.5,1.5,3.642857142857143,20.65392857142857,1.2582857142857142,135.64285714285714
TlCr5Se3S5,0.89,Tl1 Cr5 Se3 S5,27.357142857142858,73.42857142857143,1064.3428571428572,12.214285714285714,123.21428571428571,2.176428571428571,1.6428571428571428,2.357142857142857,4.642857142857143,9.642857142857142,1.5,3.642857142857143,20.682455357142857,0.9576428571428571,123.64285714285714
TlCr5Se5S3,0.8,Tl1 Cr5 Se5 S3,29.928571428571427,73.57142857142857,1079.4342857142858,12.214285714285714,125.35714285714286,2.1721428571428567,1.6428571428571428,2.357142857142857,6.071428571428571,11.071428571428571,1.5,3.642857142857143,20.70147321428572,0.7572142857142856,115.64285714285714
TlCr5Se7S,0.71,Tl1 Cr5 Se7 S1,32.5,73.71428571428571,1094.5257142857142,12.214285714285714,127.5,2.1678571428571423,1.6428571428571428,2.357142857142857,7.5,12.5,1.5,3.642857142857143,20.720491071428572,0.5567857142857143,107.64285714285714
TlCr5Se8,0.67,Tl1 Cr5 Se8,33.785714285714285,73.78571428571429,1102.0714285714287,12.214285714285714,128.57142857142858,2.1657142857142855,1.6428571428571428,2.357142857142857,8.214285714285714,13.214285714285714,1.5,3.642857142857143,20.73,0.4565714285714286,103.64285714285714
TlCr5SeS7,0.97,Tl1 Cr5 Se1 S7,24.785714285714285,73.28571428571429,1049.2514285714285,12.214285714285714,121.07142857142857,2.1807142857142856,1.6428571428571428,2.357142857142857,3.2142857142857144,8.214285714285714,1.5,3.642857142857143,20.663437499999997,1.1580714285714286,131.64285714285714
TlCuCl3,2.98,Tl1 Cu1 Cl3,32.2,84.4,489.91399999999993,15.0,116.6,2.6,1.8,3.2,4.0,11.8,1.6,1.8,22.2945,1.4957999999999998,122.2
TlCuSe2,1.07,Tl1 Cu1 Se2,44.5,79.5,730.6925,14.0,129.25,2.155,1.75,2.25,10.0,17.5,2.25,2.5,22.455000000000002,0.3995,111.75
TlGaS2,3.4,Tl1 Ga1 S2,36.0,81.5,414.1575,14.5,119.25,2.1475,2.0,2.5,5.0,13.0,3.5,3.5,24.3353125,1.101,99.5
TlGaSe2,1.65,Tl1 Ga1 Se2,45.0,82.0,466.9775,14.5,126.75,2.1325,2.0,2.5,10.0,18.0,3.5,3.5,24.401875,0.3995,71.5
TlGaTe2,1.8,Tl1 Ga1 Te2,54.0,82.5,581.3075,14.5,135.75,1.9075000000000002,2.0,2.5,10.0,18.0,3.5,3.5,28.823541666649998,0.232,140.5
TlHg6S4Br5,3.03,Tl1 Hg6 S4 Br5,50.0,83.0625,304.08500000000004,14.625,122.3125,2.42125,2.0,2.625,7.5,18.25,1.125,1.125,26.8051885775875,1.0058125,111.875
TlHg6Se4Br5,2.8,Tl1 Hg6 Se4 Br5,54.5,83.3125,330.495,14.625,126.0625,2.4137500000000003,2.0,2.625,10.0,20.75,1.125,1.125,26.838469827587502,0.6550625,97.875
TlInGeS4,2.3,Tl1 In1 Ge1 S4,32.285714285714285,83.14285714285714,538.7985714285714,14.857142857142858,118.14285714285714,2.2471428571428573,2.0,2.857142857142857,4.285714285714286,11.142857142857142,3.142857142857143,3.142857142857143,25.33178571428571,1.313,119.71428571428571
TlInHgS3,1.74,Tl1 In1 Hg1 S3,43.0,81.0,401.0249999999999,14.333333333333334,122.33333333333333,2.19,2.0,2.3333333333333335,5.0,14.0,2.6666666666666665,2.6666666666666665,25.62803520115,1.101,118.16666666666667
TlInTe2,0.62,Tl1 In1 Te2,58.5,82.75,613.0174999999999,14.5,140.75,1.9000000000000001,2.0,2.5,10.0,18.0,3.5,3.5,30.17416666665,0.232,159.25
TlN,1.4,Tl1 N1,44.0,79.0,320.025,14.0,108.0,2.33,2.0,2.0,5.0,16.0,4.0,4.0,20.839375,3.2185,194.0
TlN3,3.58,Tl1 N3,25.5,80.5,191.5375,14.5,89.5,2.6850000000000005,2.0,2.5,2.5,10.5,3.5,3.5,17.8040625,4.82775,194.0
TlPS2,1.6,Tl1 P1 S2,32.0,83.75,417.755,15.0,115.5,2.2425,2.0,3.0,2.5,11.0,3.0,3.0,25.2634970238,1.50725,84.0
TlPSe2,0.5,Tl1 P1 Se2,41.0,84.25,470.575,15.0,123.0,2.2275,2.0,3.0,7.5,16.0,3.0,3.0,25.330059523800003,0.80575,56.0
TlS,1.36,Tl1 S1,48.5,82.0,482.68,14.5,125.0,2.1,2.0,2.5,5.0,16.5,3.5,3.5,26.3484375,1.101,132.0
TlS2,1.8,Tl1 S2,37.666666666666664,84.0,451.24,15.0,118.33333333333333,2.2600000000000002,2.0,3.0,3.3333333333333335,13.0,3.0,3.0,26.16125,1.468,111.33333333333333
TlSbSe2,0.82,Tl1 Sb1 Se2,50.0,84.75,617.1949999999999,15.0,131.0,2.1925,2.0,3.0,10.0,18.5,3.0,3.0,27.5775,0.3995,97.0
TlSbTe3,0.38,Tl1 Sb1 Te3,57.6,86.2,729.7520000000001,15.2,139.6,1.9940000000000002,2.0,3.2,10.0,18.0,2.8,2.8,32.55199999998,0.27840000000000004,163.2
TlSnAuSe3,1.2,Tl1 Sn1 Au1 Se3,52.0,81.5,650.235,14.333333333333334,130.0,2.295,1.8333333333333333,2.5,10.0,19.0,2.5,2.6666666666666665,25.775833333333335,0.3995,100.33333333333333
TlTeP,0.3,Tl1 Te1 P1,49.333333333333336,83.0,538.9866666666666,14.666666666666666,130.0,1.97,2.0,2.6666666666666665,6.666666666666667,16.0,3.3333333333333335,3.3333333333333335,28.081190476166665,0.6963333333333334,116.0
Tm(CuTe)3,0.14,Tm1 Cu3 Te3,44.57142857142857,71.28571428571429,1151.3271428571427,12.0,142.85714285714286,1.8928571428571428,1.5714285714285714,1.7142857142857142,8.571428571428571,13.714285714285714,0.8571428571428571,1.4285714285714286,23.897142857128568,0.19885714285714287,189.28571428571428
Tm2O3,4.53,Tm2 O3,32.4,67.0,760.08,10.8,115.6,2.564,2.0,2.4,0.0,9.6,1.2,1.6,17.375,0.0,84.8
Tm4Sb2Se11.68,1.22,Tm4 Sb2 Se11.68,43.84162895927602,76.78280542986425,839.9027149321267,12.945701357466064,137.98642533936652,2.199321266968326,2.0,2.981900452488688,7.737556561085974,15.660633484162895,1.660633484162896,1.8868778280542986,27.431312217194574,0.527846153846154,71.91855203619909
TmAs,1.18,Tm1 As1,51.0,60.5,1454.0,9.0,154.5,1.715,2.0,1.5,5.0,15.0,1.5,2.0,25.9775,0.0,180.0
UHg3(TeCl3)2,2.6,U1 Hg3 Te2 Cl6,44.833333333333336,81.41666666666667,382.1566666666666,14.416666666666666,123.33333333333333,2.545,2.0,3.1666666666666665,4.25,13.166666666666666,0.8333333333333334,2.5,26.020785440608332,1.3238333333333332,104.08333333333333
UHg4(AsCl3)2,1.9,U1 Hg4 As2 Cl6,44.61538461538461,79.6923076923077,427.2984615384615,14.076923076923077,121.07692307692308,2.5153846153846158,2.0,2.769230769230769,4.6923076923076925,14.0,0.9230769230769231,2.4615384615384617,24.023872679046153,1.1506153846153846,111.0
UO,1.5,U1 O1,50.0,53.5,731.4,9.5,131.0,2.41,2.0,2.0,0.5,6.0,1.0,11.0,14.565,0.0,37.5
UO2,2.18,U1 O2,36.0,64.66666666666667,505.8666666666666,11.666666666666666,109.33333333333333,2.7533333333333334,2.0,2.6666666666666665,0.3333333333333333,6.0,1.3333333333333333,8.0,12.745,0.0,29.0
UP2S7,1.41,U1 P2 S7,23.4,80.2,476.11199999999997,14.5,114.5,2.382,2.0,3.4,0.1,5.8,2.0,4.0,24.567360119039996,1.8664,55.7
UP2S9,1.41,U1 P2 S9,22.166666666666668,81.5,461.4866666666667,14.75,112.91666666666667,2.4149999999999996,2.0,3.5,0.08333333333333333,5.833333333333333,2.0,3.6666666666666665,24.770612599199996,1.9223333333333332,58.083333333333336
V2Bi4O11,2.0,V2 Bi4 O11,27.41176470588235,81.94117647058823,420.37647058823535,14.470588235294118,95.52941176470588,2.892941176470588,2.0,3.2941176470588234,2.7058823529411766,11.294117647058824,2.0,2.823529411764706,15.175,0.0,37.529411764705884
V2Cd2Te2O11,2.48,V2 Cd2 Te2 O11,19.647058823529413,80.52941176470588,447.2094117647059,14.235294117647058,93.88235294117646,2.8635294117647057,2.0,3.0588235294117645,2.7058823529411766,7.764705882352941,1.5294117647058822,2.3529411764705883,13.805392156858824,0.05458823529411765,75.41176470588235
V2Pb4(Se2O7)3,3.37,V2 Pb4 Se6 O21,22.606060606060606,84.15151515151516,329.79515151515153,15.090909090909092,90.78787878787878,3.0339393939393937,2.0,3.515151515151515,3.212121212121212,10.424242424242424,2.121212121212121,2.5454545454545454,14.70257575757576,0.14527272727272728,51.333333333333336