composition,gap expt,composition_pmg,MagpieData mean Number,MagpieData mean MendeleevNumber,MagpieData mean MeltingT,MagpieData mean Column,MagpieData mean CovalentRadius,MagpieData mean Electronegativity,MagpieData mean NsValence,MagpieData mean NpValence,MagpieData mean NdValence,MagpieData mean NValence,MagpieData mean NpUnfilled,MagpieData mean NUnfilled,MagpieData mean GSvolume_pa,MagpieData mean GSbandgap,MagpieData mean SpaceGroupNumber
SbPbIO2,2.48,Sb1 Pb1 I1 O2,40.4,87.2,400.16799999999995,15.6,111.2,2.784,2.0,3.6,6.0,14.4,2.4,2.4,24.179000000000002,0.2124,95.8
SbRuSe,0.9,Sb1 Ru1 Se1,43.0,76.66666666666667,1334.9266666666665,13.0,135.0,2.2666666666666666,1.6666666666666667,2.3333333333333335,9.0,13.0,1.6666666666666667,3.0,23.663333333333338,0.26633333333333337,124.66666666666667
SbSBr,2.17,Sb1 S1 Br1,34.0,89.33333333333333,519.3133333333333,16.0,121.33333333333333,2.53,2.0,4.0,6.666666666666667,12.666666666666666,2.0,2.0,28.942291666666666,1.2196666666666667,100.0
SbSeBr,1.84,Sb1 Se1 Br1,40.0,89.66666666666667,554.5266666666666,16.0,126.33333333333333,2.52,2.0,4.0,10.0,16.0,2.0,2.0,28.986666666666668,0.7520000000000001,81.33333333333333
SbTeI,1.25,Sb1 Te1 I1,52.0,90.33333333333333,671.0966666666667,16.0,138.66666666666666,2.27,2.0,4.0,10.0,16.0,2.0,2.0,36.4461111111,0.5086666666666667,127.33333333333333
SbTeOs,0.05,Sb1 Te1 Os1,59.666666666666664,77.33333333333333,1644.1466666666668,13.0,140.33333333333334,2.1166666666666667,2.0,2.3333333333333335,8.666666666666666,17.666666666666668,1.6666666666666667,3.0,26.804444444433333,0.15466666666666667,170.66666666666666
SbTeRh,0.5,Sb1 Te1 Rh1,49.333333333333336,78.0,1287.8133333333333,13.333333333333334,139.66666666666666,2.143333333333333,1.6666666666666667,2.3333333333333335,9.333333333333334,13.333333333333334,1.6666666666666667,2.6666666666666665,26.654444444433334,0.15466666666666667,181.0
SbTeRu,0.5,Sb1 Te1 Ru1,49.0,77.0,1411.1466666666668,13.0,141.0,2.1166666666666667,1.6666666666666667,2.3333333333333335,9.0,13.0,1.6666666666666667,3.0,26.6111111111,0.15466666666666667,170.66666666666666
Sc(CuSe)3,0.3,Sc1 Cu3 Se3,30.0,67.14285714285714,1052.7585714285713,12.0,132.28571428571428,2.1014285714285714,1.5714285714285714,1.7142857142857142,8.714285714285714,12.0,0.8571428571428571,2.5714285714285716,19.029285714285717,0.34242857142857147,130.14285714285714
Sc2Fe,0.77,Sc2 Fe1,22.666666666666668,25.666666666666668,1813.0,4.666666666666667,157.33333333333334,1.5166666666666668,2.0,0.0,2.6666666666666665,4.666666666666667,0.0,7.333333333333333,18.400000000000002,0.0,205.66666666666666
Sc2S3,2.0,Sc2 S3,18.0,57.2,958.616,10.8,131.0,2.092,2.0,2.4,0.4,4.8,1.2,4.8,24.366125,1.3212,119.6
ScAg(PSe3)2,1.55,Sc1 Ag1 P2 Se6,30.2,77.6,664.753,14.0,124.9,2.2969999999999997,1.9,3.0,7.1,12.0,1.8,2.8,23.92254761904,0.8044,50.7
ScAgO2,3.8,Sc1 Ag1 O2,21.0,62.5,789.6325,11.5,111.75,2.5425,1.75,2.0,2.75,6.5,1.0,3.5,14.19375,0.0,110.75
ScCd,1.71,Sc1 Cd1,34.5,40.5,1204.1100000000001,7.5,157.0,1.525,2.0,0.0,5.5,7.5,0.0,4.5,20.865000000000002,0.0,194.0
ScCuO2,3.3,Sc1 Cu1 O2,16.5,62.25,820.3425,11.5,108.5,2.535,1.75,2.0,2.75,6.5,1.0,3.5,12.87875,0.0,110.75
ScHg,0.24,Sc1 Hg1,50.5,41.0,1024.16,7.5,151.0,1.6800000000000002,2.0,0.0,5.5,14.5,0.0,4.5,23.736293103450002,0.0,180.0
ScN,2.6,Sc1 N1,14.0,46.5,938.525,9.0,120.5,2.2,2.0,1.5,0.5,4.0,1.5,6.0,18.501875,3.2185,194.0
ScNiSb,0.11,Sc1 Ni1 Sb1,33.333333333333336,52.333333333333336,1481.9266666666665,9.333333333333334,144.33333333333334,1.7733333333333334,2.0,1.0,6.333333333333333,9.333333333333334,1.0,4.666666666666667,21.371666666666666,0.0,195.0
ScSbPd,0.23,Sc1 Sb1 Pd1,39.333333333333336,52.666666666666664,1515.2766666666666,9.333333333333334,149.33333333333334,1.87,1.3333333333333333,1.0,7.0,9.333333333333334,1.0,4.0,22.735,0.0,195.0
ScTa2NO5,2.67,Sc1 Ta2 N1 O5,23.77777777777778,69.33333333333333,970.1166666666666,12.0,101.22222222222223,2.7333333333333334,2.0,2.5555555555555554,0.7777777777777778,8.444444444444445,1.4444444444444444,4.0,13.19652777777778,0.7152222222222222,100.66666666666667
ScTiNbO6,3.58,Sc1 Ti1 Nb1 O6,14.666666666666666,69.22222222222223,759.3111111111111,12.0,98.88888888888889,2.7933333333333334,1.8888888888888888,2.6666666666666665,0.7777777777777778,5.333333333333333,1.3333333333333333,4.0,12.415,0.0,76.55555555555556
ScTlS2,1.51,Sc1 Tl1 S2,33.5,65.75,791.9300000000001,12.0,131.25,2.035,2.0,2.25,2.75,10.5,2.25,4.5,25.1796875,1.101,132.0
ScTlSe2,0.79,Sc1 Tl1 Se2,42.5,66.25,844.75,12.0,138.75,2.02,2.0,2.25,7.75,15.5,2.25,4.5,25.24625,0.3995,104.0
ScTlTe2,0.85,Sc1 Tl1 Te2,51.5,66.75,959.0799999999999,12.0,147.75,1.7950000000000002,2.0,2.25,7.75,15.5,2.25,4.5,29.667916666649997,0.232,173.0
SeS,1.9,Se1 S1,25.0,88.5,441.18,16.0,112.5,2.565,2.0,4.0,5.0,11.0,2.0,2.0,25.8534375,1.5005,42.0
Si(Bi3O5)4,3.2,Si1 Bi12 O20,35.45454545454545,86.36363636363636,282.29696969696965,15.575757575757576,97.18181818181819,2.876969696969697,2.0,3.5757575757575757,3.6363636363636362,14.303030303030303,2.4242424242424243,2.4242424242424243,18.11939393939394,0.023424242424242424,18.515151515151516
Si0.001Ge0.999,0.65,Si0.001 Ge0.999,31.982,78.99900000000001,1211.8756,14.0,119.991,2.00989,2.0,2.0,9.99,13.99,4.0,4.0,23.002435,0.38339,225.002
Si0.03Ge0.97,0.67,Si0.03 Ge0.97,31.46,78.97,1225.668,14.0,119.72999999999999,2.0067,2.0,2.0,9.7,13.7,4.0,4.0,22.92805,0.3947,225.06
Si0.0645Ge0.9355,1.04,Si0.0645 Ge0.9355,30.839,78.9355,1242.0762000000002,14.0,119.4195,2.0029049999999997,2.0,2.0,9.355,13.355,4.0,4.0,22.8395575,0.40815500000000005,225.12900000000002
Si0.07Ge0.93,1.04,Si0.07 Ge0.93,30.740000000000002,78.93,1244.692,14.000000000000002,119.37,2.0023,2.0,2.0,9.3,13.3,4.0,4.0,22.82545,0.4103,225.14000000000001
Si0.08Ge0.92,0.72,Si0.08 Ge0.92,30.560000000000002,78.92,1249.448,14.0,119.28,2.0012,2.0,2.0,9.200000000000001,13.200000000000001,4.0,4.0,22.7998,0.4142,225.16
Si0.109Ge0.891,1.13,Si0.109 Ge0.891,30.038,78.89099999999999,1263.2404000000001,14.0,119.019,1.9980099999999998,2.0,2.0,8.91,12.91,4.0,4.0,22.725414999999998,0.42551000000000005,225.218
Si0.12Ge0.88,0.84,Si0.12 Ge0.88,29.84,78.88,1268.4720000000002,14.0,118.91999999999999,1.9968,2.0,2.0,8.8,12.8,4.0,4.0,22.6972,0.4298,225.24
Si0.162Ge0.838,1.32,Si0.162 Ge0.838,29.084,78.838,1288.4472,14.0,118.542,1.9921799999999998,2.0,2.0,8.379999999999999,12.379999999999999,4.0,4.0,22.58947,0.44618,225.32399999999998
Si0.1Ge0.9,0.8,Si0.1 Ge0.9,30.2,78.9,1258.9600000000003,14.0,119.1,1.9989999999999999,2.0,2.0,9.0,13.0,4.0,4.0,22.7485,0.42200000000000004,225.2
Si0.226Ge0.774,1.5,Si0.226 Ge0.774,27.932000000000002,78.774,1318.8856,14.0,117.966,1.98514,2.0,2.0,7.74,11.74,4.0,4.0,22.42531,0.47114000000000006,225.452
Si0.2Ge0.8,0.86,Si0.2 Ge0.8,28.400000000000002,78.80000000000001,1306.5200000000002,14.000000000000002,118.2,1.988,2.0,2.0,8.0,12.000000000000002,4.0,4.0,22.492,0.461,225.4
Si0.347Ge0.653,1.91,Si0.347 Ge0.653,25.754,78.653,1376.4332,14.0,116.877,1.9718299999999997,2.0,2.0,6.53,10.53,4.0,4.0,22.114945,0.51833,225.69400000000002
Si0.3Ge0.7,0.88,Si0.3 Ge0.7,26.599999999999998,78.69999999999999,1354.08,14.0,117.3,1.9769999999999999,2.0,2.0,7.0,10.999999999999998,4.0,4.0,22.2355,0.5,225.6
Si0.458Ge0.542,2.24,Si0.458 Ge0.542,23.756,78.542,1429.2248000000002,14.0,115.87800000000001,1.9596200000000001,2.0,2.0,5.42,9.420000000000002,4.0,4.0,21.83023,0.56162,225.916
Si0.4Ge0.6,0.9,Si0.4 Ge0.6,24.8,78.6,1401.64,14.0,116.4,1.9659999999999997,2.0,2.0,6.0,10.0,4.0,4.0,21.979,0.539,225.8
Si0.6Ge0.4,0.94,Si0.6 Ge0.4,21.200000000000003,78.4,1496.76,14.0,114.6,1.944,2.0,2.0,4.0,8.0,4.0,4.0,21.466,0.617,226.2
Si0.7Ge0.3,1.0,Si0.7 Ge0.3,19.4,78.3,1544.32,14.0,113.69999999999999,1.9329999999999998,2.0,2.0,3.0,7.0,4.0,4.0,21.2095,0.656,226.39999999999998
Si0.8Ge0.2,1.1,Si0.8 Ge0.2,17.6,78.2,1591.88,14.000000000000002,112.80000000000001,1.922,2.0,2.0,2.0,6.0,4.0,4.0,20.953,0.6950000000000001,226.60000000000002
Si0.94Ge0.06,1.06,Si0.94 Ge0.06,15.08,78.05999999999999,1658.464,14.0,111.53999999999999,1.9065999999999999,2.0,2.0,0.6,4.6,4.0,4.0,20.593899999999998,0.7495999999999999,226.88
Si0.98Ge0.02,1.08,Si0.98 Ge0.02,14.36,78.02,1677.488,13.999999999999998,111.18,1.9022,2.0,2.0,0.2,4.2,4.0,4.0,20.491300000000003,0.7652,226.96
Si0.999Ge0.001,1.09,Si0.999 Ge0.001,14.018,78.00099999999999,1686.5244,14.0,111.009,1.90011,2.0,2.0,0.01,4.01,4.0,4.0,20.442565000000002,0.77261,226.998
Si0.9Ge0.1,1.04,Si0.9 Ge0.1,15.8,78.10000000000001,1639.44,14.0,111.9,1.911,2.0,2.0,1.0,5.0,4.0,4.0,20.6965,0.734,226.8
Si15(TeP2)4,1.24,Si15 Te4 P8,19.925925925925927,81.25925925925925,1138.2977777777778,14.592592592592593,113.81481481481481,2.0155555555555558,2.0,2.5925925925925926,1.4814814814814814,6.074074074074074,3.4074074074074074,3.4074074074074074,23.193156966474074,0.9796666666666667,149.22222222222223
Si3N4,5.1,Si3 N4,10.0,80.28571428571429,759.0285714285714,14.571428571428571,88.14285714285714,2.551428571428571,2.0,2.5714285714285716,0.0,4.571428571428571,3.4285714285714284,3.4285714285714284,17.199285714285715,4.009571428571428,208.14285714285714
SiAs2,0.88,Si1 As2,26.666666666666668,82.0,1289.0,14.666666666666666,116.33333333333333,2.0866666666666664,2.0,2.6666666666666665,6.666666666666667,11.333333333333334,3.3333333333333335,3.3333333333333335,21.596666666666668,0.25766666666666665,186.33333333333334
SiB3,2.0,Si1 B3,7.25,73.5,2182.75,13.25,90.75,2.005,2.0,1.25,0.0,3.25,4.75,4.75,10.489375,1.33625,181.25
SiGe,0.88,Si1 Ge1,23.0,78.5,1449.2,14.0,115.5,1.9549999999999998,2.0,2.0,5.0,9.0,4.0,4.0,21.7225,0.5780000000000001,226.0
SiP,2.0,Si1 P1,14.5,80.5,1002.15,14.5,109.0,2.045,2.0,2.5,0.0,4.5,3.5,3.5,21.5051190476,1.199,114.5
SiP2,1.89,Si1 P2,14.666666666666666,81.33333333333333,773.8666666666667,14.666666666666666,108.33333333333333,2.0933333333333333,2.0,2.6666666666666665,0.0,4.666666666666667,3.3333333333333335,3.3333333333333335,21.860158730133335,1.341,77.0
SiSb,1.9,Si1 Sb1,32.5,81.5,1295.3899999999999,14.5,125.0,1.9749999999999999,2.0,2.5,5.0,9.5,3.5,3.5,26.0,0.3865,196.5
SiSe2,1.72,Si1 Se2,27.333333333333332,85.33333333333333,891.6666666666666,15.333333333333334,117.0,2.3333333333333335,2.0,3.3333333333333335,6.666666666666667,12.0,2.6666666666666665,2.6666666666666665,24.093333333333334,0.7903333333333333,85.0
SiSn,0.59,Si1 Sn1,32.0,79.0,1096.04,14.0,125.0,1.93,2.0,2.0,5.0,9.0,4.0,4.0,26.862499999999997,0.3865,184.0
Sm(CuS)3,1.82,Sm1 Cu3 S3,28.142857142857142,68.42857142857143,940.4842857142856,12.0,129.85714285714286,2.087142857142857,1.5714285714285714,1.7142857142857142,4.285714285714286,8.428571428571429,0.8571428571428571,2.4285714285714284,20.54294642857143,0.9437142857142857,150.14285714285714
Sm(CuTe)3,0.23,Sm1 Cu3 Te3,43.57142857142857,69.28571428571429,1083.7557142857142,12.0,144.0,1.8814285714285715,1.5714285714285714,1.7142857142857142,8.571428571428571,12.714285714285714,0.8571428571428571,2.4285714285714284,24.38999999998571,0.19885714285714287,185.28571428571428
Sm(ErSe2)3,2.0,Sm1 Er3 Se6,47.0,66.2,961.9,10.8,148.5,2.0189999999999997,2.0,2.4,6.0,14.6,1.2,2.6,28.0505,0.47940000000000005,83.2
Sm(InS2)3,1.18,Sm1 In3 S6,30.5,77.6,496.441,13.8,125.4,2.1990000000000003,2.0,2.7,3.0,8.3,2.7,3.5,26.073124999999997,1.3212,100.3
Sm1.82Lu2.18Se6,1.51,Sm1.82 Lu2.18 Se6,47.162,66.524,963.238,10.8,148.802,2.0198,2.0,2.4,6.218,14.762,1.2,4.618,27.89243,0.47940000000000005,80.904
Sm2(SnSe3)3,0.7,Sm2 Sn3 Se9,41.42857142857143,77.64285714285714,617.9457142857143,13.714285714285714,135.21428571428572,2.2264285714285714,2.0,3.0,8.571428571428571,14.428571428571429,2.142857142857143,3.2857142857142856,28.5425,0.5136428571428572,62.92857142857143
Sm2Mn3(SbS3)4,1.5,Sm2 Mn3 Sb4 S12,28.333333333333332,76.0952380952381,739.1638095238095,13.285714285714286,125.19047619047619,2.1976190476190474,2.0,2.857142857142857,2.619047619047619,8.047619047619047,1.7142857142857142,3.1904761904761907,25.40977422003333,1.2582857142857142,118.42857142857143
Sm2O3,5.0,Sm2 O3,29.6,61.4,570.88,10.8,118.8,2.532,2.0,2.4,0.0,6.8,1.2,4.4,18.755,0.0,73.6
Sm2S3,2.96,Sm2 S3,34.4,62.0,771.016,10.8,142.2,2.016,2.0,2.4,0.0,6.8,1.2,4.4,28.764125,1.3212,108.4
Sm2Sc3,2.3,Sm2 Sc3,37.4,15.8,1626.4,3.0,181.2,1.284,2.0,0.0,0.6,5.0,0.0,8.6,26.633,0.0,182.8
Sm2Se3,2.3,Sm2 Se3,45.2,62.6,834.4,10.8,151.2,1.9979999999999998,2.0,2.4,6.0,12.8,1.2,4.4,28.844,0.47940000000000005,74.8
Sm2Te3,0.7,Sm2 Te3,56.0,63.2,971.5959999999999,10.8,162.0,1.7280000000000002,2.0,2.4,6.0,12.8,1.2,4.4,34.14999999998,0.27840000000000004,157.6
Sm2ZrSe5,1.41,Sm2 Zr1 Se5,41.75,66.875,911.0,11.25,146.375,2.0525,2.0,2.5,6.5,12.5,1.25,4.25,27.406875000000003,0.499375,74.5
Sm3Al0.33Si1S7,2.26,Sm3 Al0.33 Si1 S7,27.91615180935569,69.46954986760812,772.1593203883494,12.293909973521624,130.62047661076787,2.1183848190644308,2.0,2.6769638128861426,0.0,6.265666372462489,1.734333627537511,3.852603706972639,27.01469770520741,1.4286849073256842,113.79082082965579
Sm3B(SO)3,2.5,Sm3 B1 S3 O3,26.3,66.6,771.2479999999999,11.8,119.1,2.3609999999999998,2.0,2.5,0.0,6.3,1.7,4.1,21.153812499999997,0.813,91.0
Sm3Te4,0.51,Sm3 Te4,56.285714285714285,61.285714285714285,989.3771428571428,10.428571428571429,163.71428571428572,1.7014285714285715,2.0,2.2857142857142856,5.714285714285714,12.571428571428571,1.1428571428571428,4.571428571428571,34.10619047617143,0.2651428571428572,158.0
Sm4GaSbS9,2.23,Sm4 Ga1 Sb1 S9,31.6,69.53333333333333,672.1286666666667,12.266666666666667,133.2,2.1173333333333333,2.0,2.6666666666666665,1.3333333333333333,7.6,1.7333333333333334,3.8666666666666667,27.694624999999995,1.3212,101.6
Sm4InSbS9,2.13,Sm4 In1 Sb1 S9,32.8,69.6,680.5846666666667,12.266666666666667,134.53333333333333,2.115333333333333,2.0,2.6666666666666665,1.3333333333333333,7.6,1.7333333333333334,3.8666666666666667,28.054791666666667,1.3212,106.6
SmAs,1.03,Sm1 As1,47.5,53.5,1217.5,9.0,158.5,1.675,2.0,1.5,5.0,11.5,1.5,5.5,27.7025,0.0,166.0
SmB(SbO4)2,3.54,Sm1 B1 Sb2 O8,19.416666666666668,80.08333333333333,494.91333333333324,14.5,90.66666666666667,2.9025,2.0,3.25,1.6666666666666667,7.416666666666667,2.25,2.9166666666666665,14.696875,0.127,63.333333333333336
SmB6,3.5,Sm1 B6,13.142857142857142,65.0,2204.714285714286,11.571428571428571,100.28571428571429,1.9157142857142857,2.0,0.8571428571428571,0.0,3.7142857142857144,4.285714285714286,5.428571428571429,10.895,1.3062857142857143,166.0
SmB66,0.8,Sm1 B66,5.850746268656716,71.26865671641791,2333.0298507462685,12.850746268656716,85.70149253731343,2.0270149253731344,2.0,0.9850746268656716,0.0,3.074626865671642,4.925373134328358,5.044776119402985,7.561417910447762,1.5012537313432837,166.0
SmBiW2O9,3.39,Sm1 Bi1 W2 O9,28.076923076923077,76.46153846153847,751.7384615384616,13.384615384615385,97.23076923076923,2.99,2.0,3.0,1.3846153846153846,10.076923076923077,1.6153846153846154,3.1538461538461537,13.86346153846154,0.0,57.23076923076923
SmCuSO,2.9,Sm1 Cu1 S1 O1,28.75,65.5,786.4825000000001,11.5,125.25,2.2725,1.75,2.0,2.5,7.75,1.0,3.25,19.79796875,0.5505,118.25
SmCuSe2,2.1,Sm1 Cu1 Se2,39.75,66.25,922.6925,11.5,142.5,2.0425,1.75,2.0,7.5,12.75,1.0,3.25,24.035,0.3995,104.75
SmCuSeO,2.6,Sm1 Cu1 Se1 O1,33.25,65.75,812.8925,11.5,129.0,2.2649999999999997,1.75,2.0,5.0,10.25,1.0,3.25,19.83125,0.19975,104.25
SmP,1.09,Sm1 P1,38.5,53.0,831.15,9.0,152.5,1.68,2.0,1.5,0.0,6.5,1.5,5.5,27.9001190476,0.8125,84.0
SmS,2.3,Sm1 S1,39.0,55.5,866.6800000000001,9.5,151.5,1.875,2.0,2.0,0.0,7.0,1.0,5.0,29.5084375,1.101,118.0
SmSb,0.59,Sm1 Sb1,56.5,54.0,1124.3899999999999,9.0,168.5,1.6099999999999999,2.0,1.5,5.0,11.5,1.5,5.5,32.394999999999996,0.0,166.0
SmSe,0.46,Sm1 Se1,48.0,56.0,919.5,9.5,159.0,1.8599999999999999,2.0,2.0,5.0,12.0,1.0,5.0,29.575,0.3995,90.0
SmSnTe2,0.52,Sm1 Sn1 Te2,54.0,70.75,823.8499999999999,12.25,153.25,1.8325,2.0,2.5,7.5,13.5,2.0,4.0,34.010416666649995,0.232,152.75
Sn0.001Pb0.999Se1,0.24,Sn0.001 Pb0.999 Se1,57.984,84.9995,547.257235,15.0,132.99650000000003,2.439815,2.0,3.0,10.0,21.993000000000002,3.0,3.0,27.017587499999998,0.3995,119.458
Sn0.01Te1Pb0.99,0.23,Sn0.01 Te1 Pb0.99,66.84,85.495,661.15735,15.0,141.96499999999997,2.21315,2.0,3.0,10.0,21.93,3.0,3.0,31.462541666649997,0.232,188.07999999999998
Sn0.03Pb0.97Se1,0.21,Sn0.03 Pb0.97 Se1,57.519999999999996,84.985,545.87205,15.0,132.89499999999998,2.43445,2.0,3.0,10.0,21.79,3.0,3.0,27.092625,0.3995,118.24
Sn0.03Te1Pb0.97,0.21,Sn0.03 Te1 Pb0.97,66.52,85.485,660.2020499999999,15.0,141.89499999999998,2.2094500000000004,2.0,3.0,10.0,21.79,3.0,3.0,31.51429166665,0.232,187.24
Sn0.05Pb0.95Se1,0.12,Sn0.05 Pb0.95 Se1,57.199999999999996,84.975,544.91675,15.0,132.825,2.4307499999999997,2.0,3.0,10.0,21.65,3.0,3.0,27.144375,0.3995,117.4
Sn0.06Pb0.94Se1,0.14,Sn0.06 Pb0.94 Se1,57.04,84.97,544.4391,15.0,132.79,2.4288999999999996,2.0,3.0,10.0,21.58,3.0,3.0,27.17025,0.3995,116.98
Sn0.06Te1Pb0.94,0.28,Sn0.06 Te1 Pb0.94,66.03999999999999,85.47,658.7691,15.0,141.79,2.2039,2.0,3.0,10.0,21.58,3.0,3.0,31.59191666665,0.232,185.98000000000002
Sn0.07Pb0.93Se1,0.08,Sn0.07 Pb0.93 Se1,56.88,84.965,543.96145,15.0,132.755,2.42705,2.0,3.0,10.0,21.51,3.0,3.0,27.196125000000002,0.3995,116.56
Sn0.08Pb0.92Se1,0.06,Sn0.08 Pb0.92 Se1,56.72,84.96000000000001,543.4838,15.0,132.72,2.4252000000000002,2.0,3.0,10.0,21.44,3.0,3.0,27.222,0.3995,116.14
Sn0.08Te0.08Pb0.92Se0.92,0.22,Sn0.08 Te0.08 Pb0.92 Se0.92,57.44,85.0,552.6302000000001,15.0,133.44,2.4072,2.0,3.0,10.0,21.44,3.0,3.0,27.575733333332003,0.38610000000000005,121.66
Sn0.08Te1Pb0.92,0.13,Sn0.08 Te1 Pb0.92,65.72,85.46000000000001,657.8137999999999,15.0,141.72,2.2002,2.0,3.0,10.0,21.44,3.0,3.0,31.64366666665,0.232,185.14
Sn0.13Pb0.87Se1,0.02,Sn0.13 Pb0.87 Se1,55.92,84.935,541.09555,15.0,132.54500000000002,2.4159499999999996,2.0,3.0,10.0,21.09,3.0,3.0,27.351375,0.3995,114.04
Sn0.15Pb0.85Se1,0.13,Sn0.15 Pb0.85 Se1,55.6,84.925,540.14025,15.0,132.475,2.41225,2.0,3.0,10.0,20.950000000000003,3.0,3.0,27.403125,0.3995,113.2
Sn0.15Te0.15Pb0.85Se0.85,0.18,Sn0.15 Te0.15 Pb0.85 Se0.85,56.95,85.0,557.2897499999999,15.0,133.825,2.3785,2.0,3.0,10.0,20.95,3.0,3.0,28.0663749999975,0.374375,123.55
Sn0.17Pb0.83Se1,0.04,Sn0.17 Pb0.83 Se1,55.28,84.91499999999999,539.1849500000001,15.0,132.405,2.40855,2.0,3.0,10.0,20.81,3.0,3.0,27.454875,0.3995,112.36
Sn0.17Te1Pb0.83,0.15,Sn0.17 Te1 Pb0.83,64.28,85.41499999999999,653.51495,15.0,141.405,2.1835500000000003,2.0,3.0,10.0,20.81,3.0,3.0,31.87654166665,0.232,181.36
Sn0.1Te1Pb0.9,0.16,Sn0.1 Te1 Pb0.9,65.4,85.45,656.8585,15.0,141.65,2.1965000000000003,2.0,3.0,10.0,21.299999999999997,3.0,3.0,31.695416666649997,0.232,184.3
Sn0.23Te1Pb0.77,0.04,Sn0.23 Te1 Pb0.77,63.32,85.385,650.64905,15.0,141.195,2.17245,2.0,3.0,10.0,20.39,3.0,3.0,32.031791666649994,0.232,178.84
Sn0.25Pb0.75Se1,0.04,Sn0.25 Pb0.75 Se1,54.0,84.875,535.36375,15.0,132.125,2.39375,2.0,3.0,10.0,20.25,3.0,3.0,27.661875000000002,0.3995,109.0
Sn0.25Te1Pb0.75,0.04,Sn0.25 Te1 Pb0.75,63.0,85.375,649.6937499999999,15.0,141.125,2.16875,2.0,3.0,10.0,20.25,3.0,3.0,32.08354166665,0.232,178.0
Sn0.28Te0.28Pb0.72Se0.72,0.12,Sn0.28 Te0.28 Pb0.72 Se0.72,56.04,85.0,565.9432,15.0,134.54,2.3251999999999997,2.0,3.0,10.0,20.04,3.0,3.0,28.977566666662,0.3526,127.06000000000002
Sn0.2Pb0.8Se1,0.06,Sn0.2 Pb0.8 Se1,54.800000000000004,84.9,537.752,15.0,132.3,2.403,2.0,3.0,10.0,20.6,3.0,3.0,27.5325,0.3995,111.1
Sn0.2Te0.2Pb0.8Se0.8,0.14,Sn0.2 Te0.2 Pb0.8 Se0.8,56.6,85.0,560.618,15.000000000000002,134.10000000000002,2.358,2.0,3.0,10.0,20.6,3.0,3.0,28.416833333330004,0.36600000000000005,124.9
Sn0.2Te1Pb0.8,0.08,Sn0.2 Te1 Pb0.8,63.800000000000004,85.4,652.082,15.0,141.3,2.178,2.0,3.0,10.0,20.6,3.0,3.0,31.954166666649996,0.232,180.1
Sn0.35Te0.35Pb0.65Se0.65,0.09,Sn0.35 Te0.35 Pb0.65 Se0.65,55.55,85.0,570.60275,15.0,134.925,2.2965,2.0,3.0,10.0,19.55,2.9999999999999996,2.9999999999999996,29.468208333327496,0.34087500000000004,128.95
Sn0.99Te1Pb0.01,0.26,Sn0.99 Te1 Pb0.01,51.16,85.005,614.34765,15.0,138.535,2.03185,2.0,3.0,10.0,15.07,3.0,3.0,33.99829166665,0.232,146.92000000000002
Sn1Se0.01S0.99,1.08,Sn1 Se0.01 S0.99,33.09,84.005,447.2482,15.0,122.07499999999999,2.26985,2.0,3.0,5.05,10.05,3.0,3.0,29.536603125,1.093985,105.22