composition,gap expt,composition_pmg,MagpieData mean Number,MagpieData mean MendeleevNumber,MagpieData mean MeltingT,MagpieData mean Column,MagpieData mean CovalentRadius,MagpieData mean Electronegativity,MagpieData mean NsValence,MagpieData mean NpValence,MagpieData mean NdValence,MagpieData mean NValence,MagpieData mean NpUnfilled,MagpieData mean NUnfilled,MagpieData mean GSvolume_pa,MagpieData mean GSbandgap,MagpieData mean SpaceGroupNumber
Ce(InS2)3,1.11,Ce1 In3 S6,30.1,76.8,469.041,13.8,126.0,2.194,2.0,2.7,3.1,7.9,2.7,4.9,26.474125000000004,1.3212,103.1
Ce1.3Lu0.7S3,1.25,Ce1.3 Lu0.7 S3,34.62,62.44,782.516,10.8,142.22,2.0170000000000003,2.0,2.4,0.4,7.019999999999999,1.2,8.18,29.195625,1.3212,119.6
Ce10Se14O,1.93,Ce10 Se14 O1,42.56,59.32,707.232,10.8,151.44,2.0136,2.0,2.4,6.0,10.8,1.2,10.0,29.7754,0.44744,85.92
Ce15B8N25,3.5,Ce15 B8 N25,22.604166666666668,59.395833333333336,758.859375,10.916666666666666,114.72916666666667,2.2733333333333334,2.0,1.7291666666666667,0.3125,4.354166666666667,2.3958333333333335,9.270833333333334,20.524973958333334,3.606604166666667,189.33333333333334
Ce1Mn0.5Se1O1,2.01,Ce1 Mn0.5 Se1 O1,32.142857142857146,62.0,679.8000000000001,11.0,131.28571428571428,2.2528571428571427,2.0,2.2857142857142856,3.857142857142857,8.428571428571429,1.1428571428571428,8.142857142857142,22.145369458128574,0.2282857142857143,93.85714285714286
Ce2(SnSe3)3,0.3,Ce2 Sn3 Se9,40.857142857142854,76.5,578.8028571428571,13.714285714285714,136.07142857142858,2.2192857142857143,2.0,3.0,8.714285714285714,13.857142857142858,2.142857142857143,5.285714285714286,29.115357142857142,0.5136428571428572,66.92857142857143
Ce2Fe(SeO)2,0.64,Ce2 Fe1 Se2 O2,32.285714285714285,62.42857142857143,721.5142857142857,11.142857142857142,130.28571428571428,2.292857142857143,2.0,2.2857142857142856,4.0,8.571428571428571,1.1428571428571428,8.0,22.180000000000003,0.2282857142857143,95.57142857142857
Ce2Ge2Se7,1.1,Ce2 Ge2 Se7,38.0,73.72727272727273,729.3454545454546,13.272727272727273,135.27272727272728,2.191818181818182,2.0,2.909090909090909,8.363636363636363,13.454545454545455,2.0,6.0,27.44818181818182,0.5780909090909091,85.0909090909091
Ce2GeSe5,1.7,Ce2 Ge1 Se5,39.75,69.25,727.925,12.5,141.0,2.125,2.0,2.75,7.75,12.75,1.75,7.25,28.385625000000005,0.54725,85.375
Ce2S3,1.12,Ce2 S3,32.8,58.8,661.4159999999999,10.8,144.6,1.996,2.0,2.4,0.4,5.2,1.2,10.0,30.368125,1.3212,119.6
Ce2Se3,1.75,Ce2 Se3,43.6,59.4,724.8,10.8,153.6,1.9780000000000002,2.0,2.4,6.4,11.2,1.2,10.0,30.448,0.47940000000000005,86.0
Ce3LuSe6,1.1,Ce3 Lu1 Se6,44.9,62.0,811.3,10.8,151.9,1.9929999999999999,2.0,2.4,6.4,12.5,1.2,8.7,29.610500000000002,0.47940000000000005,86.0
Ce3MoO7,2.0,Ce3 Mo1 O7,24.727272727272727,64.0,590.2363636363636,11.545454545454545,111.63636363636364,2.690909090909091,1.9090909090909092,2.5454545454545454,0.7272727272727273,5.454545454545454,1.2727272727272727,7.818181818181818,17.37681818181818,0.0,81.36363636363636
Ce4(GeS4)3,2.3,Ce4 Ge3 S12,27.36842105263158,71.21052631578948,662.0273684210526,12.947368421052632,128.21052631578948,2.1826315789473685,2.0,2.8421052631578947,1.7894736842105263,6.842105263157895,1.894736842105263,6.526315789473684,27.758815789473687,1.4512105263157895,120.57894736842105
Ce4InSbSe9,1.69,Ce4 In1 Sb1 Se9,42.53333333333333,68.06666666666666,670.9019999999999,12.266666666666667,145.13333333333333,2.084,2.0,2.6666666666666665,7.6,12.533333333333333,1.7333333333333334,7.6,29.204000000000004,0.47940000000000005,80.46666666666667
Ce4Te7,0.5,Ce4 Te7,54.18181818181818,62.72727272727273,849.3290909090908,11.272727272727273,162.0,1.7436363636363637,2.0,2.5454545454545454,6.7272727272727275,11.636363636363637,1.2727272727272727,9.272727272727273,35.663939393918184,0.2952727272727273,167.27272727272728
Ce8Sb2S15,1.99,Ce8 Sb2 S15,32.24,64.4,648.0383999999999,11.76,139.4,2.0704000000000002,2.0,2.64,1.12,6.08,1.44,8.48,29.913725,1.3212000000000002,117.36
CeBiW2O9,2.34,Ce1 Bi1 W2 O9,27.76923076923077,75.84615384615384,730.6615384615385,13.384615384615385,97.6923076923077,2.9861538461538464,2.0,3.0,1.4615384615384615,9.76923076923077,1.6153846153846154,4.230769230769231,14.171923076923077,0.0,59.38461538461539
CeF3,4.85,Ce1 F3,21.25,73.5,307.875,13.5,93.75,3.2649999999999997,2.0,3.75,0.25,6.25,0.75,6.25,16.590625,1.4775,59.75
CeMoO4F,2.52,Ce1 Mo1 O4 F1,20.142857142857142,72.28571428571429,605.6714285714286,12.857142857142858,97.0,3.0028571428571427,1.8571428571428572,3.0,0.8571428571428571,5.857142857142857,1.2857142857142858,5.285714285714286,14.151071428571427,0.2814285714285714,69.42857142857143
CeN,0.7,Ce1 N1,32.5,48.5,567.025,9.0,137.5,2.08,2.0,1.5,0.5,4.5,1.5,12.5,26.004375000000003,3.2185,194.0
CeO2,3.41,Ce1 O2,24.666666666666668,63.0,393.5333333333333,11.666666666666666,112.0,2.6666666666666665,2.0,2.6666666666666665,0.3333333333333333,5.333333333333333,1.3333333333333333,8.666666666666666,18.483333333333334,0.0,72.66666666666667
CeScO3,3.2,Ce1 Sc1 O3,20.6,57.4,609.88,10.8,114.4,2.56,2.0,2.4,0.4,5.0,1.2,7.4,17.358,0.0,84.8
CeTaN2O,1.9,Ce1 Ta1 N2 O1,30.6,62.8,908.3800000000001,10.8,116.4,2.428,2.0,2.0,0.8,7.8,1.6,7.4,18.800500000000003,2.5748,164.6
CeTl2P2S7,2.4,Ce1 Tl2 P2 S7,30.166666666666668,79.08333333333333,464.8433333333333,14.25,120.25,2.233333333333334,2.0,3.0,1.75,9.166666666666666,2.5,4.333333333333333,26.392383432533332,1.5553333333333335,89.66666666666667
Co1Te1.88,0.2,Co1 Te1.88,43.31944444444444,78.88888888888889,1085.625277777778,13.569444444444445,133.83333333333334,2.023611111111111,2.0,2.611111111111111,8.958333333333332,13.569444444444445,1.3055555555555556,2.3472222222222223,26.250023148126388,0.3028888888888889,166.58333333333334
Co2Te3O8,3.6,Co2 Te3 O8,21.076923076923077,83.23076923076923,472.49076923076916,14.923076923076923,91.84615384615384,2.8907692307692305,2.0,3.3846153846153846,3.3846153846153846,8.76923076923077,1.6923076923076923,2.1538461538461537,15.201538461530768,0.10707692307692308,72.3076923076923
CoAs3,0.4,Co1 As3,31.5,77.5,1259.5,13.5,120.75,2.1050000000000004,2.0,2.25,9.25,13.5,2.25,3.0,19.192500000000003,0.0,173.0
CoAsS,0.6,Co1 As1 S1,25.333333333333332,76.66666666666667,1082.1200000000001,13.333333333333334,116.66666666666667,2.2133333333333334,2.0,2.3333333333333335,5.666666666666667,10.0,1.6666666666666667,2.6666666666666665,19.402291666666667,0.734,143.33333333333334
CoAsSe,0.2,Co1 As1 Se1,31.333333333333332,77.0,1117.3333333333333,13.333333333333334,121.66666666666667,2.2033333333333336,2.0,2.3333333333333335,9.0,13.333333333333334,1.6666666666666667,2.6666666666666665,19.44666666666667,0.26633333333333337,124.66666666666667
CoP2,0.35,Co1 P2,19.0,74.66666666666667,800.8666666666667,13.0,113.33333333333333,2.0866666666666664,2.0,2.0,2.3333333333333335,6.333333333333333,2.0,3.0,18.4618253968,1.0833333333333333,66.0
CoP3,0.45,Co1 P3,18.0,76.75,679.975,13.5,111.75,2.1125,2.0,2.25,1.75,6.0,2.25,3.0,19.488928571400002,1.21875,50.0
CoPS,0.4,Co1 P1 S1,19.333333333333332,76.33333333333333,824.5533333333334,13.333333333333334,112.66666666666667,2.216666666666667,2.0,2.3333333333333335,2.3333333333333335,6.666666666666667,1.6666666666666667,2.6666666666666665,19.5340376984,1.2756666666666667,88.66666666666667
CoSb2,0.17,Co1 Sb2,43.0,76.0,1191.8533333333332,13.0,134.66666666666666,1.9933333333333332,2.0,2.0,9.0,13.0,2.0,3.0,24.455,0.0,175.33333333333334
CoSb3,0.49,Co1 Sb3,45.0,78.25,1119.835,13.5,135.75,2.0075,2.0,2.25,9.25,13.5,2.25,3.0,26.23125,0.0,173.0
Cr2O3,3.4,Cr2 O3,14.4,71.8,904.8799999999999,12.0,95.2,2.728,1.6,2.4,2.0,6.0,1.2,3.6,9.939,0.0,98.8
Cr3Se4,1.59,Cr3 Se4,29.714285714285715,71.85714285714286,1216.5714285714287,11.714285714285714,128.14285714285714,2.1685714285714286,1.5714285714285714,2.2857142857142856,7.857142857142857,11.714285714285714,1.1428571428571428,3.7142857142857144,19.607142857142858,0.4565714285714286,106.14285714285714
CrB2(PbO2)6,1.8,Cr1 B2 Pb6 O12,29.61904761904762,82.04761904761905,530.3457142857143,14.666666666666666,94.04761904761905,2.9047619047619047,1.9523809523809523,2.9523809523809526,3.0952380952380953,12.0,2.761904761904762,3.0476190476190474,14.450238095238095,0.14514285714285716,97.85714285714286
CrBi2I2O11,2.4,Cr1 Bi2 I2 O11,24.0,85.625,290.33125,15.375,89.9375,3.05375,1.9375,3.75,2.8125,10.25,1.875,2.25,16.4546875,0.13275,32.0625
CrO2,0.23,Cr1 O2,13.333333333333334,74.33333333333333,763.1999999999999,12.666666666666666,90.33333333333333,2.8466666666666662,1.6666666666666667,2.6666666666666665,1.6666666666666667,6.0,1.3333333333333333,3.3333333333333335,9.799999999999999,0.0,84.33333333333333
CrO3,1.4,Cr1 O3,12.0,77.5,586.1,13.5,84.25,2.995,1.75,3.0,1.25,6.0,1.5,3.0,9.62625,0.0,66.25
CrPbO4,2.25,Cr1 Pb1 O4,23.0,79.66666666666667,499.9683333333333,14.0,91.5,2.9583333333333335,1.8333333333333333,3.0,2.5,9.666666666666666,2.0,3.0,12.62,0.0,83.66666666666667
CrSb2,0.14,Cr1 Sb2,42.0,73.0,1329.1866666666667,12.0,139.0,1.92,1.6666666666666667,2.0,8.333333333333334,12.0,2.0,4.0,24.77,0.0,187.0
CrSi2,1.3,Cr1 Si2,17.333333333333332,68.33333333333333,1851.3333333333333,11.333333333333334,120.33333333333333,1.82,1.6666666666666667,1.3333333333333333,1.6666666666666667,4.666666666666667,2.6666666666666665,4.666666666666667,17.356666666666666,0.5153333333333333,227.66666666666666
CrTe2,0.17,Cr1 Te2,42.666666666666664,76.33333333333333,1208.4399999999998,12.666666666666666,138.33333333333334,1.9533333333333334,1.6666666666666667,2.6666666666666665,8.333333333333334,12.666666666666666,1.3333333333333333,3.3333333333333335,26.90555555553333,0.30933333333333335,177.66666666666666
Cs0.4K0.6P1Se6,2.1,Cs0.4 K0.6 P1 Se6,31.55,77.6,450.48175000000003,14.0,130.8,2.28725,1.875,3.375,7.5,12.75,1.875,2.0,33.5325297619025,0.8023750000000001,39.375
Cs1.13Cd1.13Bi2.87Se6,1.0,Cs1.13 Cd1.13 Bi2.87 Se6,50.188679245283026,77.76909254267746,497.63641509433967,13.813117699910155,142.2461814914645,2.1473315363881404,1.8984725965858043,2.9299191374663076,8.984725965858042,17.423180592991915,1.8517520215633425,1.9532794249775383,36.20218328840971,0.4307277628032346,53.58760107816712
Cs1.43Cd1.43Bi2.57S6,1.28,Cs1.43 Cd1.43 Bi2.57 S6,39.94750656167979,74.91426071741033,438.3443832020997,13.398075240594924,136.9378827646544,2.1187926509186354,1.8748906386701663,2.7742782152230974,3.499562554680665,11.296587926509186,1.7244094488188977,1.8495188101487314,37.86741469816273,1.1559055118110235,92.36482939632546
Cs10Cd4Sn4S17,3.16,Cs10 Cd4 Sn4 S17,34.68571428571428,61.31428571428572,400.43485714285714,11.028571428571428,153.05714285714285,1.896,1.7142857142857142,2.1714285714285713,2.2857142857142856,6.171428571428572,1.4285714285714286,1.7142857142857142,51.63276785714285,1.0695428571428571,137.71428571428572
Cs2AgBiBr6,2.19,Cs2 Ag1 Bi1 Br6,45.0,73.1,397.73100000000005,13.0,150.1,2.3289999999999997,1.7,3.3,8.0,14.4,0.9,1.2,45.769,0.8742000000000001,107.9
Cs2AgBiCl6,2.77,Cs2 Ag1 Bi1 Cl6,34.2,72.5,341.211,13.0,139.3,2.4490000000000003,1.7,3.3,2.0,8.4,0.9,1.2,42.7795,1.4957999999999998,107.9
Cs2Al2B2O7,4.13,Cs2 Al2 B2 O7,15.538461538461538,69.92307692307692,580.7476923076923,12.76923076923077,104.61538461538461,2.5353846153846153,1.8461538461538463,2.4615384615384617,0.0,4.3076923076923075,2.6153846153846154,2.769230769230769,26.351538461538464,0.23446153846153847,101.84615384615384
Cs2Ba3(P2O7)2,6.31,Cs2 Ba3 P4 O14,19.565217391304348,69.0,245.1991304347826,12.695652173913043,108.04347826086956,2.6595652173913042,1.9130434782608696,2.9565217391304346,0.0,4.869565217391305,1.7391304347826086,1.826086956521739,27.828302277426086,0.2826086956521739,57.43478260869565
Cs2Cd(PSe3)2,2.63,Cs2 Cd1 P2 Se6,35.63636363636363,70.9090909090909,436.0,12.727272727272727,142.36363636363637,2.0863636363636364,1.8181818181818181,2.727272727272727,6.363636363636363,10.909090909090908,1.6363636363636365,1.8181818181818181,41.06231601730909,0.7312727272727273,67.27272727272727
Cs2Cd0.25Hg5.75S7,1.66,Cs2 Cd0.25 Hg5.75 S7,46.266666666666666,70.11666666666666,321.17299999999994,12.4,134.53333333333333,2.1041666666666665,1.8666666666666667,1.8666666666666667,4.0,13.1,0.9333333333333333,1.0666666666666667,37.46853304597833,1.0276,130.06666666666666
Cs2Cd1.35Hg4.65S7,1.84,Cs2 Cd1.35 Hg4.65 S7,43.919999999999995,70.04333333333334,347.5656666666667,12.4,135.41333333333333,2.0814333333333335,1.8666666666666667,1.8666666666666667,4.0,12.073333333333334,0.9333333333333333,1.0666666666666667,37.047410057472334,1.0276,132.12
Cs2Cd2Bi2S5,1.7,Cs2 Cd2 Bi2 S5,41.09090909090909,69.27272727272727,438.3836363636364,12.363636363636363,145.1818181818182,1.9909090909090907,1.8181818181818181,2.3636363636363638,3.6363636363636362,10.363636363636363,1.4545454545454546,1.6363636363636365,42.304943181818174,1.000909090909091,110.9090909090909
Cs2Cd3(B4O7)4,4.76,Cs2 Cd3 B16 O28,11.387755102040817,77.71428571428571,846.6987755102041,14.16326530612245,83.91836734693878,2.767551020408163,1.9591836734693877,2.6122448979591835,0.6122448979591837,5.183673469387755,2.7755102040816326,2.816326530612245,13.463571428571427,0.4976326530612245,82.28571428571429
Cs2Cd3Te4,2.48,Cs2 Cd3 Te4,51.333333333333336,64.44444444444444,586.2755555555555,11.333333333333334,163.55555555555554,1.6722222222222223,1.7777777777777777,1.7777777777777777,7.777777777777778,11.333333333333334,0.8888888888888888,1.1111111111111112,47.674259259244444,0.20622222222222222,183.11111111111111
Cs2Cu(PS3)3,2.4,Cs2 Cu1 P3 S9,21.866666666666667,74.33333333333333,427.206,13.466666666666667,125.73333333333333,2.2179999999999995,1.8,3.0,0.6666666666666666,5.466666666666667,1.8,2.0,36.15950595237334,1.6461999999999999,87.93333333333334
Cs2Cu2Sb2S5,1.6,Cs2 Cu2 Sb2 S5,31.818181818181817,68.0,642.5527272727272,12.181818181818182,141.36363636363637,2.0345454545454547,1.6363636363636365,2.3636363636363638,3.6363636363636362,7.636363636363637,1.4545454545454546,1.8181818181818181,40.52039772727273,1.000909090909091,144.54545454545453
Cs2DyCu3Te4,1.38,Cs2 Dy1 Cu3 Te4,47.1,59.3,925.213,10.2,162.8,1.69,1.5,1.6,7.0,11.1,0.8,1.7,43.50333333331999,0.18560000000000001,193.5
Cs2Ga2S5,3.26,Cs2 Ga2 S5,28.0,66.44444444444444,350.0888888888889,12.0,139.66666666666666,2.011111111111111,1.7777777777777777,2.4444444444444446,2.2222222222222223,6.444444444444445,2.2222222222222223,2.4444444444444446,44.242152777777775,1.2233333333333334,104.0
Cs2Ga2Se5,1.95,Cs2 Ga2 Se5,38.0,67.0,408.77777777777777,12.0,148.0,1.9944444444444445,1.7777777777777777,2.4444444444444446,7.777777777777778,12.0,2.2222222222222223,2.4444444444444446,44.31611111111111,0.4438888888888889,72.88888888888889
Cs2Hg(ICl)2,2.15,Cs2 Hg1 I2 Cl2,47.142857142857146,65.85714285714286,279.2,11.714285714285714,157.42857142857142,2.1742857142857144,1.7142857142857142,2.857142857142857,4.285714285714286,10.857142857142858,0.5714285714285714,0.8571428571428571,55.970369458128566,1.0157142857142856,125.71428571428571
Cs2Hg3I8,2.56,Cs2 Hg3 I8,59.53846153846154,76.23076923076923,338.5338461538462,13.384615384615385,153.53846153846155,2.2199999999999998,1.8461538461538463,3.076923076923077,8.461538461538462,16.615384615384617,0.6153846153846154,0.7692307692307693,50.10482758620769,0.6535384615384616,112.92307692307692
Cs2Hg3S4,2.8,Cs2 Hg3 S4,46.0,63.888888888888886,317.7311111111111,11.333333333333334,144.88888888888889,1.9888888888888887,1.7777777777777777,1.7777777777777777,3.3333333333333335,11.555555555555555,0.8888888888888888,1.1111111111111112,45.598917624522215,0.9786666666666667,137.33333333333334
Cs2Hg6S7,1.63,Cs2 Hg6 S7,46.8,70.13333333333334,315.17466666666667,12.4,134.33333333333334,2.1093333333333333,1.8666666666666667,1.8666666666666667,4.0,13.333333333333334,0.9333333333333333,1.0666666666666667,37.56424281609333,1.0276,129.6
Cs2La1.19Bi8.81S16,1.0,Cs2 La1.19 Bi8.81 S16,41.60928571428571,78.25464285714285,465.4562142857143,14.061428571428573,132.7932142857143,2.2130428571428573,1.9285714285714286,3.2296428571428573,3.188928571428572,12.752142857142857,2.0867857142857145,2.540714285714286,34.939911607142854,1.2582857142857142,68.37785714285714
Cs2Li3(BO2)5,7.3,Cs2 Li3 B5 O10,11.2,62.15,712.6125,11.5,97.6,2.456,1.75,2.25,0.0,4.0,2.25,2.5,20.411124999995003,0.381,104.75
Cs2MgGe3Se8,2.04,Cs2 Mg1 Ge3 Se8,35.0,73.35714285714286,650.8842857142857,12.428571428571429,139.21428571428572,2.0942857142857143,1.8571428571428572,2.7142857142857144,7.857142857142857,12.428571428571429,2.0,2.142857142857143,37.91392857142858,0.5386428571428572,102.78571428571429
Cs2MgSn3Se8,1.92,Cs2 Mg1 Sn3 Se8,38.857142857142854,73.57142857142857,499.53000000000003,12.428571428571429,143.28571428571428,2.0835714285714286,1.8571428571428572,2.7142857142857144,7.857142857142857,12.428571428571429,2.0,2.142857142857143,40.11678571428571,0.4565714285714286,84.78571428571429
Cs2NbCuSe4,2.19,Cs2 Nb1 Cu1 Se4,39.5,59.625,835.86875,10.25,158.0,1.91,1.5,2.0,6.75,10.25,1.0,2.25,45.557500000000005,0.3995,121.0
Cs2P2PdSe6,1.6,Cs2 P2 Pd1 Se6,35.45454545454545,70.18181818181819,548.1663636363636,12.545454545454545,141.9090909090909,2.132727272727273,1.6363636363636365,2.727272727272727,6.363636363636363,10.727272727272727,1.6363636363636365,1.8181818181818181,40.60004329003637,0.7312727272727273,70.0909090909091
Cs2PdSe8,1.5,Cs2 Pd1 Se8,38.90909090909091,71.27272727272727,580.2936363636363,12.727272727272727,144.27272727272728,2.1981818181818182,1.6363636363636365,2.909090909090909,8.181818181818182,12.727272727272727,1.4545454545454546,1.6363636363636365,41.20909090909091,0.5810909090909091,72.27272727272727
Cs2Pt(IO3)6,2.4,Cs2 Pt1 I6 O18,24.074074074074073,82.03703703703704,220.4474074074074,14.88888888888889,98.0,3.0274074074074075,1.8888888888888888,3.7777777777777777,2.5555555555555554,8.74074074074074,1.5555555555555556,1.7037037037037037,24.760370370370374,0.236,47.51851851851852
Cs2Sb,0.62,Cs2 Sb1,53.666666666666664,31.666666666666668,502.32,5.666666666666667,209.0,1.21,1.3333333333333333,1.0,3.3333333333333335,5.666666666666667,1.0,1.6666666666666667,87.69666666666666,0.0,208.0
Cs2SiB4O9,6.53,Cs2 Si1 B4 O9,13.5,72.4375,760.9612500000001,13.25,95.5625,2.6625,1.875,2.625,0.0,4.5,2.625,2.75,22.6628125,0.4293125,91.0625
Cs2Sn(PSe3)2,2.06,Cs2 Sn1 P2 Se6,35.81818181818182,71.81818181818181,427.8963636363637,12.909090909090908,141.9090909090909,2.110909090909091,1.8181818181818181,2.909090909090909,6.363636363636363,11.090909090909092,2.0,2.1818181818181817,42.31595238094546,0.7312727272727273,62.45454545454545
Cs2Sn3(SbS5)2,2.34,Cs2 Sn3 Sb2 S10,30.705882352941178,76.47058823529412,459.3870588235294,13.764705882352942,131.35294117647058,2.1976470588235295,1.8823529411764706,3.0588235294117645,2.9411764705882355,7.882352941176471,2.235294117647059,2.3529411764705883,38.374926470588235,1.2952941176470587,112.52941176470588
Cs2Te,3.5,Cs2 Te1,54.0,33.333333333333336,441.94666666666666,6.0,208.66666666666666,1.2266666666666668,1.3333333333333333,1.3333333333333333,3.3333333333333335,6.0,0.6666666666666666,1.3333333333333333,88.76444444443332,0.15466666666666667,203.33333333333334
Cs2TeBr6,2.12,Cs2 Te1 Br6,41.333333333333336,74.44444444444444,324.5155555555556,13.333333333333334,149.55555555555554,2.382222222222222,1.7777777777777777,3.7777777777777777,7.777777777777778,13.333333333333334,0.8888888888888888,1.1111111111111112,49.24148148147778,1.022888888888889,110.44444444444444
Cs2TeI6,1.5,Cs2 Te1 I6,53.333333333333336,75.11111111111111,405.2155555555556,13.333333333333334,162.22222222222223,2.1822222222222223,1.7777777777777777,3.7777777777777777,7.777777777777778,13.333333333333334,0.8888888888888888,1.1111111111111112,58.26481481481111,0.7595555555555555,110.44444444444444
Cs2Th(PS3)3,2.8,Cs2 Th1 P3 S9,25.933333333333334,71.13333333333334,471.55466666666666,12.933333333333334,130.66666666666666,2.178,1.8666666666666667,3.0,0.13333333333333333,5.0,1.8,2.466666666666667,37.57950595237333,1.6461999999999999,87.93333333333334