composition,gap expt,composition_pmg,MagpieData mean Number,MagpieData mean MendeleevNumber,MagpieData mean MeltingT,MagpieData mean Column,MagpieData mean CovalentRadius,MagpieData mean Electronegativity,MagpieData mean NsValence,MagpieData mean NpValence,MagpieData mean NdValence,MagpieData mean NValence,MagpieData mean NpUnfilled,MagpieData mean NUnfilled,MagpieData mean GSvolume_pa,MagpieData mean GSbandgap,MagpieData mean SpaceGroupNumber
Rb3Ta2AsS11,2.21,Rb3 Ta2 As1 S11,27.41176470588235,68.23529411764706,757.6082352941177,12.0,133.76470588235293,2.118823529411765,1.8235294117647058,2.764705882352941,0.9411764705882353,7.176470588235294,1.4705882352941178,2.4705882352941178,36.131654411764714,1.4248235294117648,122.41176470588235
Rb3Zn(BO2)5,2.66,Rb3 Zn1 B5 O10,12.947368421052632,69.0,732.5294736842105,12.631578947368421,98.0,2.5636842105263153,1.8421052631578947,2.3684210526315788,0.5263157894736842,4.7368421052631575,2.3684210526315788,2.526315789473684,21.738947368421055,0.4010526315789474,96.36842105263158
Rb4Ag9(SbS3)4,2.0,Rb4 Ag9 Sb4 S12,33.3448275862069,68.86206896551724,711.7120689655173,12.241379310344827,137.9655172413793,2.0624137931034485,1.5517241379310345,2.0689655172413794,4.482758620689655,8.10344827586207,1.2413793103448276,1.6896551724137931,32.60491379310344,0.9111724137931034,153.27586206896552
Rb4Ga4Si19,1.18,Rb4 Ga4 Si19,19.925925925925927,66.44444444444444,1278.3140740740741,11.925925925925926,128.77777777777777,1.7266666666666668,1.8518518518518519,1.5555555555555556,1.4814814814814814,4.888888888888889,3.5555555555555554,3.7037037037037037,30.61777777777778,0.543962962962963,203.14814814814815
Rb4Ge(PSe3)4,2.0,Rb4 Ge1 P4 Se12,30.857142857142858,71.19047619047619,459.9257142857142,12.857142857142858,136.57142857142858,2.126190476190476,1.8095238095238095,2.9523809523809526,6.190476190476191,10.952380952380953,1.9047619047619047,2.0952380952380953,37.486473922895236,0.7843333333333333,62.714285714285715
Rb4Ge3B6O17,5.42,Rb4 Ge3 B6 O17,13.666666666666666,72.13333333333334,663.4546666666666,13.2,95.53333333333333,2.667666666666667,1.8666666666666667,2.6666666666666665,1.0,5.533333333333333,2.533333333333333,2.6666666666666665,20.990833333333335,0.34309999999999996,93.03333333333333
Rb4Mo5(PO11)2,3.51,Rb4 Mo5 P2 O22,17.09090909090909,71.0909090909091,532.4254545454546,12.606060606060606,100.48484848484848,2.852727272727272,1.7272727272727273,2.8484848484848486,0.7575757575757576,5.333333333333333,1.5151515151515151,2.5454545454545454,20.811832611830305,0.09848484848484848,70.57575757575758
Rb4Ti3S14,1.59,Rb4 Ti3 S14,20.857142857142858,65.57142857142857,595.7085714285715,11.428571428571429,134.76190476190476,2.0961904761904764,1.8095238095238095,2.6666666666666665,0.2857142857142857,4.761904761904762,1.3333333333333333,2.6666666666666665,36.8560119047619,1.468,118.0
Rb5B(SO4)4,3.99,Rb5 B1 S4 O16,14.692307692307692,70.61538461538461,243.8669230769231,13.0,102.3076923076923,2.75,1.8076923076923077,3.1153846153846154,0.0,4.923076923076923,1.7307692307692308,1.9230769230769231,27.29278846153846,0.3973846153846154,68.57692307692308
Rb5Li6(BO2)11,6.53,Rb5 Li6 B11 O22,9.863636363636363,62.09090909090909,711.7736363636363,11.5,96.45454545454545,2.4568181818181816,1.75,2.25,0.0,4.0,2.25,2.5,18.91772727272273,0.381,104.75
Rb7Th2(P2Se7)3,2.07,Rb7 Th2 P6 Se21,34.52777777777778,67.41666666666667,514.195,12.194444444444445,142.05555555555554,2.0841666666666665,1.8055555555555556,2.8333333333333335,5.944444444444445,10.583333333333334,1.6666666666666667,2.3055555555555554,38.32052579364444,0.7369166666666667,65.52777777777777
Rb9Bi13S24,1.3,Rb9 Bi13 S24,39.04347826086956,71.0,417.6082608695652,12.782608695652174,139.65217391304347,2.077391304347826,1.8043478260869565,2.9347826086956523,2.8260869565217392,11.521739130434783,1.891304347826087,2.0869565217391304,40.51603260869565,1.1488695652173913,84.71739130434783
RbAg2SbS4,2.3,Rb1 Ag2 Sb1 S4,30.75,71.375,654.9425000000001,12.75,133.625,2.13125,1.625,2.375,3.75,7.75,1.375,1.75,32.26125,1.101,140.625
RbAg2TeS6,2.04,Rb1 Ag2 Te1 S6,27.9,75.2,583.5139999999999,13.5,127.8,2.226,1.7,2.8,3.0,7.5,1.4,1.7,31.28670833333,1.3676,125.1
RbAg5(PS4)2,2.4,Rb1 Ag5 P2 S8,26.875,74.9375,639.286875,13.375,124.9375,2.218125,1.625,2.375,3.125,7.125,1.375,1.75,26.4879985119,1.304125,119.875
RbBa2(PO3)5,7.6,Rb1 Ba2 P5 O15,14.956521739130435,75.73913043478261,205.2591304347826,13.91304347826087,94.56521739130434,2.832608695652174,1.9565217391304348,3.260869565217391,0.0,5.217391304347826,1.9565217391304348,2.0,20.318638716347827,0.3532608695652174,38.130434782608695
RbBi3TeSe4,0.8,Rb1 Bi3 Te1 Se4,52.666666666666664,78.66666666666667,516.0355555555556,14.0,142.44444444444446,2.131111111111111,1.8888888888888888,3.2222222222222223,8.88888888888889,18.666666666666668,2.111111111111111,2.2222222222222223,36.4462037037,0.4066666666666667,52.55555555555556
RbCaBO3,3.67,Rb1 Ca1 B1 O3,14.333333333333334,57.333333333333336,656.6433333333333,10.666666666666666,113.0,2.3633333333333333,1.8333333333333333,2.1666666666666665,0.0,4.0,1.8333333333333333,2.0,27.163333333333338,0.254,109.33333333333333
RbCd(BO2)3,4.2,Rb1 Cd1 B3 O6,13.454545454545455,73.81818181818181,752.68,13.454545454545455,92.0,2.6609090909090907,1.9090909090909092,2.4545454545454546,0.9090909090909091,5.2727272727272725,2.4545454545454546,2.5454545454545454,16.942272727272726,0.41563636363636364,90.27272727272727
RbCd4Ga5S12,3.02,Rb1 Cd4 Ga5 S12,26.181818181818183,77.72727272727273,402.9186363636363,13.909090909090908,121.18181818181819,2.1631818181818185,1.9545454545454546,2.409090909090909,4.090909090909091,8.454545454545455,2.227272727272727,2.272727272727273,26.01965909090909,1.201090909090909,98.4090909090909
RbCd4Ga5Se12,2.19,Rb1 Cd4 Ga5 Se12,36.0,78.27272727272727,460.5404545454545,13.909090909090908,129.36363636363637,2.146818181818182,1.9545454545454546,2.409090909090909,9.545454545454545,13.909090909090908,2.227272727272727,2.272727272727273,26.092272727272725,0.4358181818181819,67.86363636363636
RbCd4Ga5Te12,1.64,Rb1 Cd4 Ga5 Te12,45.81818181818182,78.81818181818181,585.264090909091,13.909090909090908,139.1818181818182,1.9013636363636366,1.9545454545454546,2.409090909090909,9.545454545454545,13.909090909090908,2.227272727272727,2.272727272727273,30.915909090890906,0.2530909090909091,143.13636363636363
RbCd4In5Se12,1.57,Rb1 Cd4 In5 Se12,40.09090909090909,78.5,489.3677272727273,13.909090909090908,133.9090909090909,2.14,1.9545454545454546,2.409090909090909,9.545454545454545,13.909090909090908,2.227272727272727,2.272727272727273,27.320113636363637,0.4358181818181819,84.9090909090909
RbCu(SbS2)2,1.6,Rb1 Cu1 Sb2 S4,29.0,73.75,628.90375,13.25,131.25,2.1425,1.75,2.75,3.75,8.25,1.75,2.0,33.5075,1.101,133.25
RbCu2AsS3,1.96,Rb1 Cu2 As1 S3,25.142857142857142,68.57142857142857,754.7257142857143,12.285714285714286,131.14285714285714,2.0771428571428574,1.5714285714285714,2.142857142857143,4.285714285714286,8.0,1.2857142857142858,1.7142857142857142,30.342589285714286,0.9437142857142857,150.71428571428572
RbCu2SbS3,1.67,Rb1 Cu2 Sb1 S3,27.714285714285715,68.71428571428571,728.1228571428571,12.285714285714286,134.0,2.0585714285714287,1.5714285714285714,2.142857142857143,4.285714285714286,8.0,1.2857142857142858,1.7142857142857142,31.68330357142857,0.9437142857142857,150.71428571428572
RbCu4AsS4,2.15,Rb1 Cu4 As1 S4,25.0,69.6,838.698,12.4,128.7,2.092,1.5,1.9,5.0,8.4,1.1,1.6,26.0325,0.8808,157.5
RbCuSnS3,1.44,Rb1 Cu1 Sn1 S3,27.333333333333332,68.66666666666667,556.7316666666667,12.333333333333334,134.33333333333334,2.07,1.6666666666666667,2.3333333333333335,3.3333333333333335,7.333333333333333,1.6666666666666667,2.0,35.40635416666667,1.101,134.16666666666666
RbCuSnSe3,1.04,Rb1 Cu1 Sn1 Se3,36.333333333333336,69.16666666666667,609.5516666666666,12.333333333333334,141.83333333333334,2.0549999999999997,1.6666666666666667,2.3333333333333335,8.333333333333334,12.333333333333334,1.6666666666666667,2.0,35.47291666666666,0.3995,106.16666666666667
RbF,10.4,Rb1 F1,23.0,48.5,182.98,9.0,138.5,2.4,1.5,2.5,0.0,4.0,0.5,1.0,50.214999999999996,0.985,122.0
RbGaSnSe4,1.88,Rb1 Ga1 Sn1 Se4,36.285714285714285,73.42857142857143,442.34999999999997,13.142857142857142,137.28571428571428,2.1128571428571425,1.8571428571428572,2.7142857142857144,8.571428571428571,13.142857142857142,2.4285714285714284,2.5714285714285716,35.22071428571429,0.4565714285714286,70.0
RbGeB3O7,5.58,Rb1 Ge1 B3 O7,11.666666666666666,75.66666666666667,745.955,13.833333333333334,87.83333333333333,2.7525,1.9166666666666667,2.75,0.8333333333333334,5.5,2.75,2.8333333333333335,16.581666666666667,0.41291666666666665,86.33333333333333
RbH2(IO3)3,4.07,Rb1 H2 I3 O9,18.0,83.93333333333334,132.9486666666667,13.2,86.2,2.9440000000000004,1.8,3.4,2.0,7.2,1.4,1.6,20.996166666666667,1.2594666666666667,61.13333333333333
RbH3(SeO3)2,4.84,Rb1 H3 Se2 O6,13.0,81.66666666666667,139.27416666666667,11.0,79.08333333333333,2.763333333333333,1.6666666666666667,2.6666666666666665,1.6666666666666667,6.0,1.3333333333333333,1.6666666666666667,18.086458333333333,2.0964166666666664,75.91666666666667
RbHgSbTe3,0.2,Rb1 Hg1 Sb1 Te3,54.0,71.66666666666667,603.09,12.666666666666666,150.83333333333334,1.8616666666666666,1.8333333333333333,2.5,8.333333333333334,15.0,1.5,1.6666666666666667,41.96834770113333,0.232,169.5
RbIn5S6,2.5,Rb1 In5 S6,31.5,75.58333333333333,399.2808333333333,13.5,130.0,2.1,1.9166666666666667,2.4166666666666665,4.166666666666667,8.5,3.0833333333333335,3.1666666666666665,30.561979166666664,1.101,112.0
RbInGeS4,3.1,Rb1 In1 Ge1 S4,26.0,72.85714285714286,501.00714285714287,13.142857142857142,128.85714285714286,2.132857142857143,1.8571428571428572,2.7142857142857144,2.857142857142857,7.428571428571429,2.4285714285714284,2.5714285714285716,34.44785714285714,1.313,124.71428571428571
RbInS2,3.3,Rb1 In1 S2,29.5,63.75,379.7325,11.5,143.0,1.94,1.75,2.25,2.5,6.5,2.25,2.5,41.6390625,1.101,127.0
RbInSnS4,2.7,Rb1 In1 Sn1 S4,28.571428571428573,73.0,400.1042857142857,13.142857142857142,131.57142857142858,2.125714285714286,1.8571428571428572,2.7142857142857144,2.857142857142857,7.428571428571429,2.4285714285714284,2.5714285714285716,35.91642857142857,1.2582857142857142,112.71428571428571
RbInTe3O8,3.9,Rb1 In1 Te3 O8,23.53846153846154,80.38461538461539,257.58384615384614,14.615384615384615,100.3076923076923,2.8015384615384615,1.9230769230769231,3.4615384615384617,3.076923076923077,8.461538461538462,2.076923076923077,2.1538461538461537,22.470192307684616,0.10707692307692308,70.76923076923077
RbLiCO3,6.28,Rb1 Li1 C1 O3,11.666666666666666,57.166666666666664,792.2583333333332,10.666666666666666,103.66666666666667,2.445,1.6666666666666667,2.3333333333333335,0.0,4.0,1.6666666666666667,2.0,23.37847222221667,0.7493333333333334,114.66666666666667
RbMn4Ga5Te12,1.53,Rb1 Mn4 Ga5 Te12,41.63636363636363,75.54545454545455,753.4059090909091,13.0,138.27272727272728,1.875909090909091,1.9545454545454546,2.409090909090909,8.636363636363637,13.0,2.227272727272727,3.1818181818181817,29.278197492145452,0.2530909090909091,147.3181818181818
RbMn4In5Se12,1.76,Rb1 Mn4 In5 Se12,35.90909090909091,75.22727272727273,657.5095454545454,13.0,133.0,2.1145454545454543,1.9545454545454546,2.409090909090909,8.636363636363637,13.0,2.227272727272727,3.1818181818181817,25.682402037618182,0.4358181818181819,89.0909090909091
RbMoPO6,2.96,Rb1 Mo1 P1 O6,15.777777777777779,73.22222222222223,428.2844444444445,13.11111111111111,97.44444444444444,2.867777777777778,1.7777777777777777,3.0,0.5555555555555556,5.333333333333333,1.6666666666666667,2.4444444444444446,20.40141534391111,0.18055555555555555,59.111111111111114
RbNa2Sb,1.0,Rb1 Na2 Sb1,27.5,23.25,489.495,4.5,172.75,1.1825,1.25,0.75,2.5,4.5,0.75,1.5,45.19229166665,0.0,213.25
RbNb3(TeO6)2,3.49,Rb1 Nb3 Te2 O12,20.0,76.05555555555556,592.521111111111,13.333333333333334,98.88888888888889,2.838888888888889,1.7777777777777777,3.111111111111111,1.7777777777777777,6.666666666666667,1.5555555555555556,2.7777777777777777,18.002731481477777,0.051555555555555556,75.77777777777777
RbNb4Br11,0.46,Rb1 Nb4 Br11,36.625,77.3125,889.7662499999999,13.0,137.25,2.48625,1.6875,3.4375,7.875,13.0,0.6875,2.5,30.48265625,1.0016875,115.5625
RbNbSe2O7,4.1,Rb1 Nb1 Se2 O7,18.363636363636363,76.18181818181819,403.09636363636366,13.636363636363637,98.72727272727273,2.8727272727272726,1.8181818181818181,3.272727272727273,2.1818181818181817,7.2727272727272725,1.6363636363636365,2.3636363636363638,20.407045454545457,0.14527272727272728,51.81818181818182
RbPPbO4,4.35,Rb1 P1 Pb1 O4,23.714285714285715,73.71428571428571,207.08142857142857,13.428571428571429,105.28571428571429,2.7285714285714286,1.8571428571428572,3.0,1.4285714285714286,8.285714285714286,2.142857142857143,2.2857142857142856,25.40324829931429,0.23214285714285715,72.0
RbPSe6,2.18,Rb1 P1 Se6,32.0,77.625,449.22,14.0,130.875,2.28875,1.875,3.375,7.5,12.75,1.875,2.0,33.6015922619,0.8023750000000001,39.375
RbSbSe2,1.62,Rb1 Sb1 Se2,39.0,66.75,551.06,12.0,149.75,1.9924999999999997,1.75,2.75,7.5,12.0,1.75,2.0,43.530625,0.3995,105.75
RbSbTe2,0.38,Rb1 Sb1 Te2,48.0,67.25,665.39,12.0,158.75,1.7675,1.75,2.75,7.5,12.0,1.75,2.0,47.95229166665,0.232,174.75
RbSc(SeO3)2,4.9,Rb1 Sc1 Se2 O6,17.4,71.5,344.326,13.2,102.6,2.7920000000000003,1.9,3.2,2.1,7.2,1.6,2.6,21.94275,0.1598,52.3
RbTa3(TeO6)2,3.88,Rb1 Ta3 Te2 O12,25.333333333333332,76.22222222222223,682.521111111111,13.333333333333334,99.88888888888889,2.822222222222222,1.9444444444444444,3.111111111111111,1.6111111111111112,9.0,1.5555555555555556,2.7777777777777777,17.992731481477776,0.051555555555555556,75.77777777777777
RbTbSe2,2.5,Rb1 Tb1 Se2,42.5,52.75,732.365,9.0,163.5,1.7824999999999998,1.75,2.0,5.0,11.0,1.0,2.5,43.574791666675,0.3995,112.75
RbV(CuS2)2,1.45,Rb1 V1 Cu2 S4,22.75,66.25,845.5550000000001,11.5,132.125,2.07125,1.625,2.0,2.875,6.5,1.0,2.25,28.627499999999998,1.101,148.5
RbY(TeO3)2,3.6,Rb1 Y1 Te2 O6,22.8,71.8,388.558,13.2,108.2,2.688,1.9,3.2,2.1,7.2,1.6,2.6,24.724416666659998,0.09280000000000001,79.9
RbYbZnSe3,2.07,Rb1 Yb1 Zn1 Se3,39.833333333333336,63.166666666666664,596.5233333333333,10.666666666666666,148.16666666666666,1.8966666666666665,1.8333333333333333,2.0,6.666666666666667,12.833333333333334,1.0,1.1666666666666667,36.09375,0.3995,115.0
RbZn4In5Se12,1.76,Rb1 Zn4 In5 Se12,36.81818181818182,78.31818181818181,507.2695454545455,13.909090909090908,129.9090909090909,2.132727272727273,1.9545454545454546,2.409090909090909,9.545454545454545,13.909090909090908,2.227272727272727,2.272727272727273,26.313750000000002,0.4358181818181819,84.9090909090909
RbZrPSe6,2.0,Rb1 Zr1 P1 Se6,32.888888888888886,73.88888888888889,635.7511111111112,12.88888888888889,135.77777777777777,2.1822222222222223,1.8888888888888888,3.0,6.888888888888889,11.777777777777779,1.6666666666666667,2.6666666666666665,32.4453042328,0.7132222222222223,56.55555555555556
ReO3,2.3,Re1 O3,24.75,78.75,905.85,13.75,87.25,3.055,2.0,3.0,1.25,9.75,1.5,2.75,10.4925,0.0,57.5
ReSi2,0.12,Re1 Si2,34.333333333333336,70.0,2277.6666666666665,11.666666666666666,124.33333333333333,1.8999999999999997,2.0,1.3333333333333333,1.6666666666666667,9.666666666666666,2.6666666666666665,4.333333333333333,18.511666666666667,0.5153333333333333,216.0
Rh0.67S2,1.5,Rh0.67 S2,23.277153558052436,80.72284644194757,852.2509363295882,14.243445692883896,114.28464419475655,2.5047191011235954,1.749063670411985,2.9962546816479403,2.00749063670412,6.752808988764046,1.4981273408239701,2.250936329588015,22.738782771535583,1.649438202247191,108.89513108614233
Rh0.67Se2,0.7,Rh0.67 Se2,36.76029962546817,81.47191011235955,931.3820224719101,14.243445692883896,125.52059925093633,2.482247191011236,1.749063670411985,2.9962546816479403,9.49812734082397,14.243445692883896,1.4981273408239701,2.250936329588015,22.83850187265918,0.5985018726591761,66.94756554307116
Rh2S3,0.8,Rh2 S3,27.6,76.4,1127.816,13.2,119.8,2.46,1.6,2.4,3.2,7.2,1.2,2.4,20.928125,1.3212,132.0
RhS3,1.5,Rh1 S3,23.25,80.75,850.52,14.25,114.25,2.505,1.75,3.0,2.0,6.75,1.5,2.25,22.75015625,1.6515,108.75
RhSe2,0.6,Rh1 Se2,37.666666666666664,79.0,1075.0,13.666666666666666,127.33333333333333,2.4599999999999995,1.6666666666666667,2.6666666666666665,9.333333333333334,13.666666666666666,1.3333333333333333,2.3333333333333335,21.826666666666668,0.5326666666666667,84.33333333333333
RhSe3,0.7,Rh1 Se3,36.75,81.5,929.75,14.25,125.5,2.4825,1.75,3.0,9.5,14.25,1.5,2.25,22.85,0.5992500000000001,66.75
RhSeS,0.7,Rh1 Se1 S1,31.666666666666668,78.66666666666667,1039.7866666666666,13.666666666666666,122.33333333333333,2.47,1.6666666666666667,2.6666666666666665,6.0,10.333333333333334,1.3333333333333333,2.3333333333333335,21.782291666666666,1.0003333333333333,103.0
RuS2,1.8,Ru1 S2,25.333333333333332,77.33333333333333,1127.9066666666668,13.333333333333334,118.66666666666667,2.4533333333333336,1.6666666666666667,2.6666666666666665,2.3333333333333335,6.666666666666667,1.3333333333333333,2.6666666666666665,21.69458333333333,1.468,111.33333333333333
RuSe2,1.0,Ru1 Se2,37.333333333333336,78.0,1198.3333333333333,13.333333333333334,128.66666666666666,2.433333333333333,1.6666666666666667,2.6666666666666665,9.0,13.333333333333334,1.3333333333333333,2.6666666666666665,21.783333333333335,0.5326666666666667,74.0
Sb2Os,0.2,Sb2 Os1,59.333333333333336,75.66666666666667,1704.5199999999998,12.666666666666666,140.66666666666666,2.1,2.0,2.0,8.666666666666666,17.333333333333332,2.0,3.3333333333333335,25.736666666666665,0.0,175.33333333333334
Sb2PbSe4,1.8,Sb2 Pb1 Se4,45.714285714285715,86.71428571428571,626.3100000000001,15.428571428571429,129.14285714285714,2.3757142857142854,2.0,3.4285714285714284,10.0,17.428571428571427,2.5714285714285716,2.5714285714285716,27.844285714285714,0.4565714285714286,87.57142857142857
Sb2Ru,0.3,Sb2 Ru1,48.666666666666664,75.33333333333333,1471.5199999999998,12.666666666666666,141.33333333333334,2.1,1.6666666666666667,2.0,9.0,12.666666666666666,2.0,3.3333333333333335,25.543333333333333,0.0,175.33333333333334
Sb3IO4,2.61,Sb3 I1 O4,29.75,87.375,414.67375,15.75,102.5,2.82125,2.0,3.75,5.0,10.75,2.25,2.25,21.764375,0.13275,76.25
Sb5IO7,1.95,Sb5 I1 O7,28.0,86.92307692307692,406.87307692307695,15.692307692307692,99.6923076923077,2.845384615384615,2.0,3.6923076923076925,4.615384615384615,10.307692307692308,2.3076923076923075,2.3076923076923075,20.35,0.0816923076923077,75.23076923076923
Sb6Pb4Se13,0.65,Sb6 Pb4 Se13,46.78260869565217,86.56521739130434,619.44,15.391304347826088,129.47826086956522,2.3813043478260867,2.0,3.391304347826087,10.0,17.82608695652174,2.608695652173913,2.608695652173913,27.772173913043478,0.45160869565217393,90.34782608695652
Sb6Pb6Se17,0.8,Sb6 Pb6 Se17,47.44827586206897,86.51724137931035,600.8393103448276,15.379310344827585,129.31034482758622,2.4010344827586207,2.0,3.3793103448275863,10.0,18.275862068965516,2.6206896551724137,2.6206896551724137,27.540000000000003,0.4683793103448276,89.10344827586206
Sb8I2O11,2.72,Sb8 I2 O11,28.666666666666668,87.0952380952381,409.84476190476187,15.714285714285714,100.76190476190476,2.836190476190476,2.0,3.7142857142857144,4.761904761904762,10.476190476190476,2.2857142857142856,2.2857142857142856,20.88880952380952,0.10114285714285715,75.61904761904762
SbAs,1.6,Sb1 As1,42.0,84.5,996.89,15.0,129.0,2.115,2.0,3.0,10.0,15.0,3.0,3.0,26.8675,0.0,166.0
SbOsS,1.2,Sb1 Os1 S1,47.666666666666664,76.66666666666667,1532.7133333333331,13.0,129.33333333333334,2.276666666666667,2.0,2.3333333333333335,5.333333333333333,14.333333333333334,1.6666666666666667,3.0,23.812291666666667,0.734,143.33333333333334
SbOsSe,0.4,Sb1 Os1 Se1,53.666666666666664,77.0,1567.9266666666665,13.0,134.33333333333334,2.2666666666666666,2.0,2.3333333333333335,8.666666666666666,17.666666666666668,1.6666666666666667,3.0,23.856666666666666,0.26633333333333337,124.66666666666667
SbPb2S2I3,2.0,Sb1 Pb2 S2 I3,50.75,88.875,505.28375000000005,15.75,132.25,2.48125,2.0,3.75,7.5,16.75,2.25,2.25,33.54984375,0.94875,118.5
SbPbBrO2,2.67,Sb1 Pb1 Br1 O2,36.8,87.0,375.95799999999997,15.6,107.4,2.844,2.0,3.6,6.0,14.4,2.4,2.4,21.472,0.2914,95.8