composition,gap expt,composition_pmg,MagpieData mean Number,MagpieData mean MendeleevNumber,MagpieData mean MeltingT,MagpieData mean Column,MagpieData mean CovalentRadius,MagpieData mean Electronegativity,MagpieData mean NsValence,MagpieData mean NpValence,MagpieData mean NdValence,MagpieData mean NValence,MagpieData mean NpUnfilled,MagpieData mean NUnfilled,MagpieData mean GSvolume_pa,MagpieData mean GSbandgap,MagpieData mean SpaceGroupNumber
LiH3(SeO3)2,4.9,Li1 H3 Se2 O6,10.166666666666666,81.41666666666667,151.04333333333332,11.0,71.41666666666667,2.776666666666667,1.6666666666666667,2.6666666666666665,1.6666666666666667,6.0,1.3333333333333333,1.6666666666666667,11.909027777775,2.0964166666666664,75.91666666666667
LiIn(IO3)4,4.27,Li1 In1 I4 O12,20.0,83.55555555555556,171.58,15.222222222222221,89.88888888888889,3.037777777777778,1.9444444444444444,3.8333333333333335,2.7777777777777777,8.555555555555555,1.8333333333333333,1.8888888888888888,17.898518518516667,0.23600000000000002,42.666666666666664
LiInS2,3.56,Li1 In1 S2,21.0,63.0,415.04,11.5,120.0,1.98,1.75,2.25,2.5,6.5,2.25,2.5,23.106770833325,1.101,127.0
LiInSe2,2.83,Li1 In1 Se2,30.0,63.5,467.86,11.5,127.5,1.9649999999999999,1.75,2.25,7.5,11.5,2.25,2.5,23.173333333325,0.3995,99.0
LiInSnS4,2.3,Li1 In1 Sn1 S4,23.714285714285715,72.57142857142857,420.28000000000003,13.142857142857142,118.42857142857143,2.1485714285714286,1.8571428571428572,2.7142857142857144,2.857142857142857,7.428571428571429,2.4285714285714284,2.5714285714285716,25.326547619042856,1.2582857142857142,112.71428571428571
LiInTe2,1.46,Li1 In1 Te2,39.0,64.0,582.19,11.5,136.5,1.74,1.75,2.25,7.5,11.5,2.25,2.5,27.594999999975,0.232,168.0
LiMgAs,0.7,Li1 Mg1 As1,16.0,51.0,822.23,6.0,129.33333333333334,1.4900000000000002,1.6666666666666667,1.0,3.3333333333333335,6.0,1.0,1.3333333333333333,20.552777777766664,0.0,196.33333333333334
LiMgBi,0.4,Li1 Mg1 Bi1,32.666666666666664,51.666666666666664,640.3633333333333,6.0,139.0,1.4366666666666668,1.6666666666666667,1.0,3.3333333333333335,10.666666666666666,1.0,1.3333333333333333,24.144444444433333,0.0,145.0
LiMgN,3.2,Li1 Mg1 N1,7.333333333333333,50.333333333333336,479.91333333333336,6.0,113.33333333333333,1.7766666666666666,1.6666666666666667,1.0,0.0,2.6666666666666665,1.0,1.3333333333333333,18.084027777766664,2.1456666666666666,205.66666666666666
LiMoIO6,2.8,Li1 Mo1 I1 O6,16.22222222222222,74.33333333333333,451.70444444444445,13.333333333333334,90.77777777777777,2.937777777777778,1.7777777777777777,3.2222222222222223,1.6666666666666667,6.666666666666667,1.4444444444444444,2.2222222222222223,14.436481481477777,0.11800000000000001,66.0
LiNb3(BiO3)4,3.0,Li1 Nb3 Bi4 O12,27.7,76.5,576.9445000000001,13.4,100.2,2.757,1.8,3.0,2.6,10.2,1.8,2.9,15.609666666665001,0.0,55.4
LiSb3PbS6,1.6,Li1 Sb3 Pb1 S6,30.363636363636363,78.63636363636364,554.1636363636363,14.181818181818182,120.0909090909091,2.267272727272727,1.9090909090909092,3.1818181818181817,3.6363636363636362,10.0,2.272727272727273,2.3636363636363638,26.73678030302727,1.201090909090909,124.72727272727273
LiSbS2,1.36,Li1 Sb1 S2,21.5,65.5,533.5475,12.0,119.25,2.0475,1.75,2.75,2.5,7.0,1.75,2.0,24.931770833324997,1.101,133.75
LiSbSe2,0.68,Li1 Sb1 Se2,30.5,66.0,586.3675000000001,12.0,126.75,2.0324999999999998,1.75,2.75,7.5,12.0,1.75,2.0,24.998333333325,0.3995,105.75
LiSbTe2,0.13,Li1 Sb1 Te2,39.5,66.5,700.6975,12.0,135.75,1.8075,1.75,2.75,7.5,12.0,1.75,2.0,29.419999999974998,0.232,174.75
LiSiB6,2.27,Li1 Si1 B6,5.875,63.875,2028.58625,11.625,92.875,1.8900000000000001,1.875,1.0,0.0,2.875,4.25,4.375,10.0085416666625,1.239625,181.5
LiSm3SiS7,2.83,Li1 Sm3 Si1 S7,26.25,63.666666666666664,741.1841666666666,11.333333333333334,130.66666666666666,2.0375,1.9166666666666667,2.5,0.0,5.916666666666667,1.5,3.5833333333333335,26.435954861108332,1.3489166666666668,120.33333333333333
LiTa3(BiO3)4,3.5,Li1 Ta3 Bi4 O12,32.5,76.65,657.9445000000001,13.4,101.1,2.742,1.95,3.0,2.45,12.3,1.8,2.9,15.600666666665001,0.0,55.4
LiTaO3,4.1,Li1 Ta1 O3,20.0,62.0,781.618,10.8,99.2,2.56,1.8,2.4,0.6,7.6,1.2,2.8,12.40566666666,0.0,98.8
LiZn2GaO4,4.0,Li1 Zn2 Ga1 O4,15.75,70.125,295.145,12.75,94.75,2.48125,1.875,2.125,3.75,7.75,1.625,1.75,12.4738541666625,0.0,91.125
LiZnBO3,3.1,Li1 Zn1 B1 O3,10.333333333333334,67.16666666666667,609.795,12.333333333333334,88.66666666666667,2.4983333333333335,1.8333333333333333,2.1666666666666665,1.6666666666666667,5.666666666666667,1.8333333333333333,2.0,10.840138888883333,0.254,104.16666666666667
LiZnN,1.91,Li1 Zn1 N1,13.333333333333334,50.666666666666664,403.13999999999993,9.333333333333334,107.0,1.89,1.6666666666666667,1.0,3.3333333333333335,6.0,1.0,1.3333333333333333,15.1073611111,2.1456666666666666,205.66666666666666
Lu(InS2)3,1.27,Lu1 In3 S6,31.4,79.4,555.5409999999999,13.8,124.3,2.209,2.0,2.7,3.1,9.2,2.7,3.6,25.636625,1.3212,103.1
Lu2CrS4,1.75,Lu2 Cr1 S4,32.857142857142854,69.0,1086.4914285714287,10.857142857142858,133.28571428571428,2.0742857142857143,1.8571428571428572,2.2857142857142856,1.0,9.142857142857142,1.1428571428571428,4.571428571428571,24.581071428571427,1.2582857142857142,128.14285714285714
Lu2O3,5.5,Lu2 O3,33.2,68.6,807.28,10.8,114.4,2.572,2.0,2.4,0.4,10.4,1.2,4.8,17.009,0.0,84.8
Lu2TlCu3Se5,2.12,Lu2 Tl1 Cu3 Se5,43.63636363636363,72.27272727272727,999.300909090909,12.0,137.72727272727272,2.055454545454545,1.7272727272727273,1.9090909090909092,8.363636363636363,15.818181818181818,1.3636363636363635,3.272727272727273,22.495454545454546,0.3631818181818182,120.63636363636364
LuCd4B3O10,3.7,Lu1 Cd4 B3 O10,19.88888888888889,78.16666666666667,661.3822222222223,13.88888888888889,93.05555555555556,2.697222222222222,2.0,2.388888888888889,2.2777777777777777,7.444444444444445,1.9444444444444444,2.4444444444444446,12.189583333333335,0.254,88.22222222222223
LuP,1.3,Lu1 P1,43.0,62.0,1126.65,9.0,147.0,1.73,2.0,1.5,0.5,11.0,1.5,6.0,25.7176190476,0.8125,98.0
Mg2Co,0.66,Mg2 Co1,17.0,64.66666666666667,1204.6666666666667,4.333333333333333,136.0,1.5,2.0,0.0,2.3333333333333335,4.333333333333333,0.0,1.0,18.675,0.0,194.0
Mg2Ge,1.67,Mg2 Ge1,18.666666666666668,71.66666666666667,1019.1333333333333,6.0,134.0,1.5433333333333332,2.0,0.6666666666666666,3.3333333333333335,6.0,1.3333333333333333,1.3333333333333333,22.92833333333333,0.12766666666666668,204.33333333333334
Mg2GeSe4,2.02,Mg2 Ge1 Se4,27.428571428571427,81.57142857142857,719.0571428571428,11.714285714285714,126.0,2.1185714285714283,2.0,2.5714285714285716,7.142857142857143,11.714285714285714,1.7142857142857142,1.7142857142857142,24.637857142857143,0.5112857142857143,95.57142857142857
Mg2Si,2.27,Mg2 Si1,12.666666666666666,71.33333333333333,1177.6666666666667,6.0,131.0,1.5066666666666666,2.0,0.6666666666666666,0.0,2.6666666666666665,1.3333333333333333,1.3333333333333333,22.073333333333334,0.25766666666666665,205.0
Mg3(B25C4)2,2.7,Mg3 B50 C8,5.475409836065574,72.45901639344262,2471.3606557377047,12.59016393442623,85.75409836065573,2.0709836065573772,2.0,1.0819672131147542,0.0,3.081967213114754,4.622950819672131,4.622950819672131,7.744508196721312,1.8388196721311476,171.04918032786884
Mg3AsN,1.33,Mg3 As1 N1,15.2,74.0,784.4100000000001,7.2,122.6,1.83,2.0,1.2,2.0,5.2,1.2,1.2,21.12275,1.2874,188.4
Mg3N2,2.8,Mg3 N2,10.0,73.6,579.02,7.2,113.0,2.002,2.0,1.2,0.0,3.2,1.2,1.2,19.6415,2.5748,194.0
Mg3P2,1.4,Mg3 P2,13.2,74.0,680.72,7.2,127.4,1.6620000000000001,2.0,1.2,0.0,3.2,1.2,1.2,22.76209523808,0.65,117.2
Mg3Sb2,0.8,Mg3 Sb2,27.6,74.8,915.3119999999999,7.2,140.2,1.6059999999999999,2.0,1.2,4.0,7.2,1.2,1.2,26.357999999999997,0.0,182.8
Mg5B3O9F,5.63,Mg5 B3 O9 F1,8.666666666666666,79.55555555555556,678.0944444444444,11.666666666666666,89.33333333333333,2.645,2.0,2.4444444444444446,0.0,4.444444444444445,1.8888888888888888,1.8888888888888888,12.645555555555557,0.36344444444444446,88.38888888888889
MgCu2GeS4,2.36,Mg1 Cu2 Ge1 S4,20.75,78.375,800.4225000000001,12.75,118.125,2.1799999999999997,1.75,2.25,3.75,7.75,1.5,1.75,21.3978125,1.1488749999999999,143.625
MgCu2SiS4,3.2,Mg1 Cu2 Si1 S4,18.5,78.25,859.8725,12.75,117.0,2.16625,1.75,2.25,2.5,6.5,1.5,1.75,21.0771875,1.197625,143.875
MgF2,11.1,Mg1 F2,10.0,84.66666666666667,343.3333333333333,12.0,85.0,3.09,2.0,3.3333333333333335,0.0,5.333333333333333,0.6666666666666666,0.6666666666666666,14.101666666666667,1.3133333333333332,74.66666666666667
MgSiN2,4.05,Mg1 Si1 N2,10.0,77.5,684.025,11.5,98.5,2.3225,2.0,2.0,0.0,4.0,2.5,2.5,18.216875,3.41175,202.25
MgTe,3.6,Mg1 Te1,32.0,79.0,822.8299999999999,9.0,139.5,1.705,2.0,2.0,5.0,9.0,1.0,1.0,28.82666666665,0.232,173.0
Mn(PbO2)2,1.5,Mn1 Pb2 O4,31.571428571428573,80.28571428571429,419.9171428571429,14.142857142857142,99.28571428571429,2.8528571428571428,2.0,2.857142857142857,3.5714285714285716,12.428571428571429,2.2857142857142856,3.0,14.73251231527143,0.0,102.14285714285714
Mn(SbO2)2,2.65,Mn1 Sb2 O4,22.714285714285715,81.42857142857143,506.53714285714284,14.428571428571429,97.28571428571429,2.7728571428571427,2.0,3.142857142857143,3.5714285714285716,8.714285714285714,2.0,2.7142857142857144,15.718226600985714,0.0,85.28571428571429
Mn(SbSe2)2,0.31,Mn1 Sb2 Se4,37.57142857142857,82.57142857142857,757.5085714285714,14.428571428571429,128.14285714285714,2.264285714285714,2.0,3.142857142857143,9.285714285714286,14.428571428571429,2.0,2.7142857142857144,25.326798029557146,0.4565714285714286,86.42857142857143
Mn0.05Te1Pb0.95,0.37,Mn0.05 Te1 Pb0.95,65.57499999999999,84.775,684.59475,14.825,141.825,2.1955,2.0,2.95,9.875,21.475,2.9,3.025,30.996106321822495,0.232,188.3
Mn0.1Te1Pb0.9,0.49,Mn0.1 Te1 Pb0.9,64.15,84.05000000000001,707.5545,14.649999999999999,141.65,2.176,2.0,2.9,9.75,20.95,2.8,3.05,30.555545976995,0.232,188.1
Mn15Si26,0.7,Mn15 Si26,18.024390243902438,68.48780487804878,1625.5365853658536,11.439024390243903,121.2439024390244,1.7719512195121954,2.0,1.2682926829268293,1.829268292682927,5.097560975609756,2.5365853658536586,4.365853658536586,16.79887300252439,0.4901951219512195,223.34146341463415
MnAl3,0.58,Mn1 Al3,16.0,67.75,1079.8525,11.5,125.5,1.595,2.0,0.75,1.25,4.0,3.75,5.0,14.981896551724999,0.0,223.0
MnF2,9.9,Mn1 F2,14.333333333333334,79.33333333333333,542.0,13.666666666666666,84.33333333333333,3.17,2.0,3.3333333333333335,1.6666666666666667,7.0,0.6666666666666666,2.3333333333333335,9.967528735633332,1.3133333333333332,82.33333333333333
MnIn2PbS5,1.45,Mn1 In2 Pb1 S5,31.666666666666668,80.33333333333333,546.7677777777777,14.11111111111111,121.55555555555556,2.26,2.0,2.6666666666666665,3.888888888888889,10.11111111111111,2.6666666666666665,3.2222222222222223,24.005773467433333,1.2233333333333334,118.88888888888889
MnO,3.6,Mn1 O1,16.5,69.5,786.9,11.5,102.5,2.495,2.0,2.0,2.5,6.5,1.0,3.5,9.796293103450001,0.0,114.5
MnO2,1.3,Mn1 O2,13.666666666666666,75.33333333333333,542.8666666666667,13.0,90.33333333333333,2.81,2.0,2.6666666666666665,1.6666666666666667,6.333333333333333,1.3333333333333333,3.0,9.565862068966666,0.0,80.33333333333333
MnP4,0.28,Mn1 P4,17.0,76.8,557.64,13.4,113.4,2.0620000000000003,2.0,2.4,1.0,5.4,2.4,3.4,20.15370771754,1.3,45.0
MnPSe3,2.5,Mn1 P1 Se3,28.4,80.4,663.6600000000001,14.0,121.2,2.278,2.0,3.0,7.0,12.0,1.8,2.8,22.163564860420003,0.8044,52.2
MnSe,2.5,Mn1 Se1,29.5,70.5,1006.5,11.5,129.5,2.05,2.0,2.0,7.5,11.5,1.0,3.5,18.20379310345,0.3995,115.5
MnSi,0.6,Mn1 Si1,19.5,65.0,1603.0,10.5,125.0,1.725,2.0,1.0,2.5,5.5,2.0,4.5,15.463793103450001,0.3865,222.0
MnTe9,2.0,Mn1 Te9,49.3,86.2,802.294,15.1,138.1,2.0450000000000004,2.0,3.6,9.5,15.1,1.8,2.3,32.33575862066,0.4176,158.5
MnV(TeO4)2,1.9,Mn1 V1 Te2 O8,18.0,81.16666666666667,465.47666666666663,14.333333333333334,91.33333333333333,2.908333333333333,2.0,3.3333333333333335,2.3333333333333335,7.666666666666667,1.6666666666666667,2.6666666666666665,13.822021072791665,0.07733333333333334,70.5
MoSe2,1.6,Mo1 Se2,36.666666666666664,76.0,1294.6666666666667,12.666666666666666,131.33333333333334,2.42,1.6666666666666667,2.6666666666666665,8.333333333333334,12.666666666666666,1.3333333333333333,3.3333333333333335,22.51,0.5326666666666667,85.66666666666667
Na(GeP)3,2.06,Na1 Ge3 P3,21.714285714285715,69.71428571428571,708.1385714285715,12.571428571428571,121.0,1.9328571428571428,1.8571428571428572,2.142857142857143,4.285714285714286,8.285714285714286,3.0,3.142857142857143,23.709863945557142,0.8605714285714285,130.0
Na0.5Ge1Pb1.75S4,2.08,Na0.5 Ge1 Pb1.75 S4,33.793103448275865,79.13793103448276,551.9093103448276,14.206896551724139,121.17241379310344,2.3272413793103452,1.9310344827586208,2.9655172413793105,3.793103448275862,12.068965517241379,2.6206896551724137,2.689655172413793,26.20229885057241,1.2677241379310344,139.75862068965517
Na0.5Ge1Pb1.75Se4,1.6,Na0.5 Ge1 Pb1.75 Se4,43.724137931034484,79.6896551724138,610.1934482758621,14.206896551724139,129.44827586206895,2.3106896551724136,1.9310344827586208,2.9655172413793105,9.310344827586206,17.586206896551722,2.6206896551724137,2.689655172413793,26.275747126434485,0.49365517241379314,108.86206896551724
Na0.75Eu1.625Ge1Se4,2.0,Na0.75 Eu1.625 Ge1 Se4,37.779661016949156,64.69491525423729,711.1766101694915,11.338983050847459,141.864406779661,2.011271186440678,1.8983050847457628,2.440677966101695,6.779661016949152,12.661016949152541,1.6271186440677967,3.2711864406779663,28.185084745759323,0.48528813559322037,111.84745762711864
Na2B6O9F2,7.33,Na2 B6 O9 F2,7.473684210526316,73.94736842105263,812.1021052631579,13.578947368421053,81.26315789473684,2.790526315789474,1.894736842105263,2.736842105263158,0.0,4.631578947368421,2.6315789473684212,2.736842105263158,10.677982456136842,0.6886315789473684,83.78947368421052
Na2Be4B4O11,7.3,Na2 Be4 B4 O11,6.9523809523809526,72.23809523809524,808.4066666666668,11.333333333333334,84.66666666666667,2.578095238095238,1.9047619047619047,2.2857142857142856,0.0,4.190476190476191,2.0,2.0952380952380953,10.423412698409525,0.2902857142857143,96.66666666666667
Na2Cd(GeSe3)2,2.37,Na2 Cd1 Ge2 Se6,30.727272727272727,69.63636363636364,611.16,12.545454545454545,130.54545454545453,2.0790909090909087,1.8181818181818181,2.5454545454545454,8.181818181818182,12.545454545454545,1.8181818181818181,2.0,25.410151515145458,0.5054545454545455,107.81818181818181
Na2CdSnS4,2.52,Na2 Cd1 Sn1 S4,23.0,63.25,424.31,11.5,129.375,1.97875,1.75,2.25,2.5,6.5,1.5,1.75,26.801770833325,1.101,134.125
Na2EuGeSe4,2.0,Na2 Eu1 Ge1 Se4,31.625,58.0,628.0175,10.375,141.25,1.9068749999999999,1.75,2.25,6.25,11.125,1.5,2.625,27.703958333325,0.447375,121.0
Na2Ga2GeS6,3.29,Na2 Ga2 Ge1 S6,19.272727272727273,69.0,444.4654545454545,12.545454545454545,120.54545454545455,2.088181818181818,1.8181818181818181,2.5454545454545454,2.727272727272727,7.090909090909091,2.3636363636363638,2.5454545454545454,24.90253787878182,1.2359090909090908,111.9090909090909
Na2Ga2SnS6,2.2,Na2 Ga2 Sn1 S6,20.90909090909091,69.0909090909091,380.2545454545454,12.545454545454545,122.27272727272727,2.083636363636364,1.8181818181818181,2.5454545454545454,2.727272727272727,7.090909090909091,2.3636363636363638,2.5454545454545454,25.83708333332727,1.201090909090909,104.27272727272727
Na2Gd(PO4)2,4.19,Na2 Gd1 P2 O8,13.846153846153847,68.6923076923077,261.5953846153846,12.538461538461538,97.6923076923077,2.689230769230769,1.8461538461538463,2.923076923076923,0.07692307692307693,5.384615384615385,1.6923076923076923,3.076923076923077,16.03978021976923,0.25,57.84615384615385
Na2Ge2Se5,2.38,Na2 Ge2 Se5,28.444444444444443,67.44444444444444,626.06,12.222222222222221,130.22222222222223,2.07,1.7777777777777777,2.6666666666666665,7.777777777777778,12.222222222222221,2.0,2.2222222222222223,26.010740740733336,0.529,108.66666666666667
Na2Hg3(GeS4)2,2.68,Na2 Hg3 Ge2 S8,30.266666666666666,71.93333333333334,464.95866666666666,12.933333333333334,120.53333333333333,2.1679999999999997,1.8666666666666667,2.4,3.3333333333333335,10.4,1.6,1.7333333333333334,25.76696168582,1.2254666666666665,131.06666666666666
Na2Hg3Se1.49S2.51,2.03,Na2 Hg3 Se1.49 S2.51,39.20222222222222,63.38777777777778,350.61595555555556,11.333333333333334,130.0388888888889,2.0150333333333332,1.7777777777777777,1.7777777777777777,4.988888888888889,13.211111111111112,0.8888888888888888,1.1111111111111112,26.393920170811114,0.7463922222222221,128.0622222222222
Na2In2GeS6,3.17,Na2 In2 Ge1 S6,22.545454545454547,69.18181818181819,467.52727272727276,12.545454545454545,124.18181818181819,2.0827272727272725,1.8181818181818181,2.5454545454545454,2.727272727272727,7.090909090909091,2.3636363636363638,2.5454545454545454,25.884810606054543,1.2359090909090908,125.54545454545455
Na2In2GeSe6,2.47,Na2 In2 Ge1 Se6,32.36363636363637,69.72727272727273,525.1490909090909,12.545454545454545,132.36363636363637,2.066363636363636,1.8181818181818181,2.5454545454545454,8.181818181818182,12.545454545454545,2.3636363636363638,2.5454545454545454,25.957424242418185,0.4706363636363637,95.0
Na2In2SiS6,3.27,Na2 In2 Si1 S6,20.90909090909091,69.0909090909091,510.76363636363635,12.545454545454545,123.36363636363636,2.0727272727272728,1.8181818181818181,2.5454545454545454,1.8181818181818181,6.181818181818182,2.3636363636363638,2.5454545454545454,25.65162878787273,1.2713636363636363,125.72727272727273
Na2In4Se6S,1.92,Na2 In4 Se6 S1,33.69230769230769,71.23076923076923,447.16153846153844,12.76923076923077,132.69230769230768,2.066153846153846,1.8461538461538463,2.4615384615384617,7.6923076923076925,12.0,2.6153846153846154,2.769230769230769,25.91027243589231,0.5381538461538462,89.84615384615384
Na2Mo2Se2O11,3.1,Na2 Mo2 Se2 O11,15.411764705882353,72.88235294117646,477.91411764705884,13.058823529411764,94.47058823529412,2.889411764705882,1.7647058823529411,3.0588235294117645,1.7647058823529411,6.588235294117647,1.5294117647058822,2.3529411764705883,14.227156862741177,0.094,63.294117647058826
Na2Nb4Se4O19,3.56,Na2 Nb4 Se4 O19,16.344827586206897,75.89655172413794,508.9289655172414,13.448275862068966,93.86206896551724,2.8903448275862065,1.793103448275862,3.1724137931034484,1.9310344827586208,6.896551724137931,1.5862068965517242,2.6206896551724137,14.064885057468967,0.11020689655172414,57.172413793103445
Na2Pt(IO3)6,2.4,Na2 Pt1 I6 O18,20.814814814814813,81.81481481481481,225.57925925925926,14.88888888888889,92.22222222222223,3.0377777777777784,1.8888888888888888,3.7777777777777777,2.5555555555555554,8.74074074074074,1.5555555555555556,1.7037037037037037,18.351358024688892,0.236,47.51851851851852
Na2S,2.4,Na2 S1,12.666666666666666,30.666666666666668,376.7,6.0,145.66666666666666,1.4800000000000002,1.3333333333333333,1.3333333333333333,0.0,2.6666666666666665,0.6666666666666666,1.3333333333333333,28.09118055553333,0.734,176.0
Na2Se,2.0,Na2 Se1,18.666666666666668,31.0,411.91333333333336,6.0,150.66666666666666,1.47,1.3333333333333333,1.3333333333333333,3.3333333333333335,6.0,0.6666666666666666,1.3333333333333333,28.135555555533333,0.26633333333333337,157.33333333333334
Na2Si2Hg3S8,2.86,Na2 Si2 Hg3 S8,27.866666666666667,71.8,528.372,12.933333333333334,119.33333333333333,2.1533333333333333,1.8666666666666667,2.4,2.0,9.066666666666666,1.6,1.7333333333333334,25.42496168582,1.2774666666666665,131.33333333333334
Na2Sn2Hg3S8,2.45,Na2 Sn2 Hg3 S8,32.666666666666664,72.06666666666666,370.78266666666667,12.933333333333334,123.06666666666666,2.1613333333333333,1.8666666666666667,2.4,3.3333333333333335,10.4,1.6,1.7333333333333334,27.137628352486665,1.1743999999999999,119.86666666666666
Na2Te,2.3,Na2 Te1,24.666666666666668,31.333333333333332,488.1333333333334,6.0,156.66666666666666,1.32,1.3333333333333333,1.3333333333333333,3.3333333333333335,6.0,0.6666666666666666,1.3333333333333333,31.0833333333,0.15466666666666667,203.33333333333334
Na2TeS3,2.35,Na2 Te1 S3,20.333333333333332,59.666666666666664,438.24666666666667,11.0,130.83333333333334,1.95,1.6666666666666667,2.6666666666666665,1.6666666666666667,6.0,1.3333333333333333,1.6666666666666667,28.435104166649996,1.1783333333333335,136.66666666666666
Na2TeSe3,1.87,Na2 Te1 Se3,29.333333333333332,60.166666666666664,491.06666666666666,11.0,138.33333333333334,1.9349999999999998,1.6666666666666667,2.6666666666666665,6.666666666666667,11.0,1.3333333333333333,1.6666666666666667,28.50166666665,0.4768333333333334,108.66666666666667