composition,gap expt,composition_pmg,MagpieData mean Number,MagpieData mean MendeleevNumber,MagpieData mean MeltingT,MagpieData mean Column,MagpieData mean CovalentRadius,MagpieData mean Electronegativity,MagpieData mean NsValence,MagpieData mean NpValence,MagpieData mean NdValence,MagpieData mean NValence,MagpieData mean NpUnfilled,MagpieData mean NUnfilled,MagpieData mean GSvolume_pa,MagpieData mean GSbandgap,MagpieData mean SpaceGroupNumber
Eu(HoSe2)2,1.8,Eu1 Ho2 Se4,47.57142857142857,63.857142857142854,937.8571428571429,10.428571428571429,151.71428571428572,1.9778571428571428,2.0,2.2857142857142856,5.714285714285714,14.142857142857142,1.1428571428571428,3.0,28.800952380942856,0.4565714285714286,96.14285714285714
Eu(InS2)2,1.5,Eu1 In2 S4,32.142857142857146,75.28571428571429,501.13428571428574,13.285714285714286,128.85714285714286,2.152142857142857,2.0,2.5714285714285716,2.857142857142857,8.428571428571429,2.5714285714285716,3.5714285714285716,26.875357142857144,1.2582857142857142,112.42857142857143
Eu(InSe2)2,1.31,Eu1 In2 Se4,42.42857142857143,75.85714285714286,561.5,13.285714285714286,137.42857142857142,2.1350000000000002,2.0,2.5714285714285716,8.571428571428571,14.142857142857142,2.5714285714285716,3.5714285714285716,26.951428571428576,0.4565714285714286,80.42857142857143
Eu(InTe2)2,1.22,Eu1 In2 Te4,52.714285714285715,76.42857142857143,692.1628571428571,13.285714285714286,147.71428571428572,1.877857142857143,2.0,2.5714285714285716,8.571428571428571,14.142857142857142,2.5714285714285716,3.5714285714285716,32.00476190474286,0.2651428571428572,159.28571428571428
Eu(LuSe2)2,1.7,Eu1 Lu2 Se4,48.714285714285715,66.14285714285714,991.8571428571429,10.428571428571429,150.28571428571428,1.989285714285714,2.0,2.2857142857142856,6.0,15.285714285714286,1.1428571428571428,4.714285714285714,28.267142857142858,0.4565714285714286,96.14285714285714
Eu(SbS2)2,1.2,Eu1 Sb2 S4,32.714285714285715,78.14285714285714,636.5714285714286,13.857142857142858,128.0,2.2292857142857145,2.0,3.142857142857143,2.857142857142857,9.0,2.0,3.0,28.961071428571426,1.2582857142857142,120.14285714285714
Eu(SbSe2)2,0.95,Eu1 Sb2 Se4,43.0,78.71428571428571,696.9371428571428,13.857142857142858,136.57142857142858,2.212142857142857,2.0,3.142857142857143,8.571428571428571,14.714285714285714,2.0,3.0,29.037142857142857,0.4565714285714286,88.14285714285714
Eu(TmSe2)2,1.8,Eu1 Tm2 Se4,48.142857142857146,65.0,958.1428571428571,10.428571428571429,151.14285714285714,1.9835714285714285,2.0,2.2857142857142856,5.714285714285714,14.714285714285714,1.1428571428571428,2.4285714285714284,28.528571428571432,0.4565714285714286,96.14285714285714
Eu1.75Ag0.5Ge1S4,2.14,Eu1.75 Ag0.5 Ge1 S4,31.689655172413794,69.96551724137932,730.8351724137931,12.241379310344827,132.27586206896552,2.1198275862068967,1.9310344827586208,2.4827586206896552,2.0689655172413794,8.172413793103448,1.6551724137931034,3.413793103448276,27.327241379310344,1.2677241379310344,140.44827586206895
Eu1.83Ta15O32,0.23,Eu1.83 Ta15 O32,30.028466106901494,72.69608847020275,1087.5988122056112,12.133729264796232,102.89453204996929,2.75954433749744,2.0,2.6213393405693224,0.9215646119189024,10.105877534302683,1.3106696702846612,3.7233258242883474,12.899483923817327,0.0,86.79234077411427
Eu2Ga2GeS7,2.3,Eu2 Ga2 Ge1 S7,27.666666666666668,74.41666666666667,560.4783333333334,13.166666666666666,124.58333333333333,2.171666666666667,2.0,2.6666666666666665,2.5,8.333333333333334,2.3333333333333335,3.5,26.179010416666667,1.3164166666666668,108.41666666666667
Eu2O3,4.5,Eu2 O3,30.0,62.2,470.88,10.8,118.8,2.5380000000000003,2.0,2.4,0.0,7.2,1.2,4.0,20.047,0.0,98.8
Eu2Se3,1.02,Eu2 Se3,45.6,63.4,734.4,10.8,151.2,2.004,2.0,2.4,6.0,13.2,1.2,4.0,30.136000000000003,0.47940000000000005,100.0
Eu2SnSe5,1.07,Eu2 Sn1 Se5,43.25,71.875,645.635,12.5,141.875,2.135,2.0,2.75,7.5,14.0,1.75,3.5,29.475625,0.499375,83.625
Eu3(InP2)2,0.45,Eu3 In2 P4,38.55555555555556,61.888888888888886,601.5222222222222,10.555555555555555,145.11111111111111,1.7638888888888888,2.0,1.5555555555555556,2.2222222222222223,8.11111111111111,2.4444444444444446,4.777777777777778,27.575661375644447,0.7222222222222222,108.11111111111111
Eu3As2,0.6,Eu3 As2,51.0,48.6,1093.0,7.8,166.4,1.5830000000000002,2.0,1.2,4.0,11.4,1.2,5.4,30.746,0.0,203.8
Eu3Bi4S9,1.18,Eu3 Bi4 S9,41.5625,75.6875,559.865,13.3125,133.1875,2.1784375,2.0,3.0,2.5,12.3125,1.875,3.1875,29.578867187500002,1.2386249999999999,85.3125
Eu3P2,1.2,Eu3 P2,43.8,48.2,783.92,7.8,161.6,1.5870000000000002,2.0,1.2,0.0,7.4,1.2,5.4,30.904095238079996,0.65,138.2
Eu3S4,1.7,Eu3 S4,36.142857142857146,61.0,691.2057142857144,10.428571428571429,144.85714285714286,1.9821428571428572,2.0,2.2857142857142856,0.0,7.285714285714286,1.1428571428571428,4.142857142857143,30.361071428571424,1.2582857142857142,138.14285714285714
Eu3Sb4S9,1.2,Eu3 Sb4 S9,33.5625,75.4375,649.71,13.3125,130.9375,2.1859374999999996,2.0,3.0,2.5,8.8125,1.875,3.1875,29.2313671875,1.2386249999999999,123.8125
Eu3Sb4Se9,1.08,Eu3 Sb4 Se9,43.6875,76.0,709.1324999999999,13.3125,139.375,2.1690625,2.0,3.0,8.125,14.4375,1.875,3.1875,29.306250000000002,0.44943750000000005,92.3125
Eu3Se4,0.58,Eu3 Se4,46.42857142857143,61.57142857142857,751.5714285714286,10.428571428571429,153.42857142857142,1.9649999999999999,2.0,2.2857142857142856,5.714285714285714,13.0,1.1428571428571428,4.142857142857143,30.437142857142856,0.4565714285714286,106.14285714285714
Eu4Te7,0.31,Eu4 Te7,56.0,66.36363636363636,858.0563636363636,11.272727272727273,159.8181818181818,1.7672727272727273,2.0,2.5454545454545454,6.363636363636363,13.454545454545455,1.2727272727272727,3.8181818181818183,35.380303030281816,0.2952727272727273,180.0
Eu7(Ga3Sb4)2,0.6,Eu7 Ga6 Sb8,49.285714285714285,61.857142857142854,795.842857142857,10.428571428571429,153.8095238095238,1.693095238095238,2.0,1.4285714285714286,6.666666666666667,12.428571428571429,2.5714285714285716,4.904761904761905,29.56404761904762,0.0,157.85714285714286
EuAl2O4,2.74,Eu1 Al2 O4,17.285714285714285,74.14285714285714,454.4485714285714,13.285714285714286,100.57142857142857,2.5949999999999998,2.0,2.5714285714285716,0.0,5.571428571428571,2.5714285714285716,3.5714285714285716,15.120000000000001,0.0,103.85714285714286
EuB(SbO4)2,3.46,Eu1 B1 Sb2 O8,19.5,80.25,474.0799999999999,14.5,90.66666666666667,2.90375,2.0,3.25,1.6666666666666667,7.5,2.25,2.8333333333333335,14.966041666666667,0.127,68.58333333333333
EuBiW2O9,3.63,Eu1 Bi1 W2 O9,28.153846153846153,76.61538461538461,732.5076923076923,13.384615384615385,97.23076923076923,2.991153846153846,2.0,3.0,1.3846153846153846,10.153846153846153,1.6153846153846154,3.076923076923077,14.111923076923075,0.0,62.07692307692308
EuCu2SnS4,1.85,Eu1 Cu2 Sn1 S4,29.375,73.125,733.6324999999999,12.875,127.625,2.158125,1.75,2.25,3.75,8.625,1.5,2.625,24.379062499999996,1.101,137.5
EuH2,1.85,Eu1 H2,21.666666666666668,69.66666666666667,374.34,1.6666666666666667,86.66666666666667,1.861666666666667,1.3333333333333333,0.0,0.0,3.6666666666666665,0.0,3.0,16.563333333333333,5.235333333333333,205.66666666666666
EuIn2(GeIr)4,0.26,Eu1 In2 Ge4 Ir4,54.27272727272727,66.45454545454545,1614.190909090909,11.0,138.72727272727272,1.9622727272727274,2.0,0.9090909090909091,8.0,16.636363636363637,2.3636363636363638,4.090909090909091,21.258181818181818,0.13927272727272727,209.72727272727272
EuN,1.25,Eu1 N1,35.0,53.5,579.025,9.0,134.5,2.1125,2.0,1.5,0.0,7.0,1.5,5.0,25.614375000000003,3.2185,211.5
EuO,1.12,Eu1 O1,35.5,56.0,574.9,9.5,132.0,2.3125,2.0,2.0,0.0,7.5,1.0,4.5,22.7825,0.0,120.5
EuS,1.65,Eu1 S1,39.5,56.5,741.6800000000001,9.5,151.5,1.8825,2.0,2.0,0.0,7.5,1.0,4.5,31.1234375,1.101,149.5
EuSb4S7,0.98,Eu1 Sb4 S7,31.583333333333332,81.75,619.0533333333333,14.583333333333334,124.08333333333333,2.2870833333333334,2.0,3.3333333333333335,3.3333333333333335,9.25,2.1666666666666665,2.75,28.600677083333334,1.2845,115.25
EuSb4Te7,0.54,Eu1 Sb4 Te7,52.583333333333336,82.91666666666667,814.0616666666666,14.583333333333334,143.33333333333334,2.0070833333333336,2.0,3.3333333333333335,9.166666666666666,15.083333333333334,2.1666666666666665,2.75,33.836944444424994,0.27066666666666667,163.08333333333334
EuSe,3.1,Eu1 Se1,48.5,57.0,794.5,9.5,159.0,1.8675,2.0,2.0,5.0,12.5,1.0,4.5,31.19,0.3995,121.5
EuSnTe2,0.6,Eu1 Sn1 Te2,54.25,71.25,761.3499999999999,12.25,153.25,1.8362500000000002,2.0,2.5,7.5,13.75,2.0,3.75,34.81791666665,0.232,168.5
Fe2B(PO4)3,3.52,Fe2 B1 P3 O12,11.0,81.94444444444444,421.0833333333333,14.777777777777779,81.16666666666667,2.9749999999999996,2.0,3.2222222222222223,0.6666666666666666,5.888888888888889,2.111111111111111,2.5555555555555554,11.422400793644446,0.3555,43.0
Fe2O3,2.2,Fe2 O3,15.2,74.2,757.28,12.8,92.4,2.7960000000000003,2.0,2.4,2.4,6.8,1.2,2.8,9.755,0.0,98.8
Fe4H15(IO8)3,2.3,Fe4 H15 I3 O24,10.217391304347826,86.43478260869566,215.86739130434785,10.478260869565217,65.08695652173913,2.8447826086956525,1.673913043478261,2.4130434782608696,1.173913043478261,5.260869565217392,1.108695652173913,1.7826086956521738,10.645869565217392,2.630021739130435,93.6086956521739
FeAgSe2,0.23,Fe1 Ag1 Se2,35.25,74.5,1008.4825000000001,12.75,129.25,2.215,1.75,2.0,9.0,12.75,1.0,2.25,19.725,0.3995,120.5
FeAsSe,0.6,Fe1 As1 Se1,31.0,76.0,1131.6666666666667,13.0,123.66666666666667,2.1866666666666665,2.0,2.3333333333333335,8.666666666666666,13.0,1.6666666666666667,3.0,19.608333333333334,0.26633333333333337,136.33333333333334
FeBi(SeO3)3,2.54,Fe1 Bi1 Se3 O9,20.214285714285715,85.07142857142857,309.3285714285715,15.357142857142858,88.14285714285714,3.032857142857143,2.0,3.642857142857143,3.2857142857142856,9.928571428571429,1.9285714285714286,2.2142857142857144,14.527500000000002,0.17121428571428574,27.928571428571427
FeBi25O39,2.8,Fe1 Bi25 O39,37.12307692307692,86.12307692307692,270.12615384615384,15.492307692307692,98.55384615384615,2.869076923076923,2.0,3.5538461538461537,3.9384615384615387,14.876923076923077,2.353846153846154,2.4153846153846152,18.301153846153852,0.0,15.338461538461539
FeCuSe2,0.15,Fe1 Cu1 Se2,30.75,74.25,1039.1925,12.75,126.0,2.2075,1.75,2.0,9.0,12.75,1.0,2.25,18.41,0.3995,120.5
FeCuTe2,0.16,Fe1 Cu1 Te2,39.75,74.75,1153.5225,12.75,135.0,1.9825,1.75,2.0,9.0,12.75,1.0,2.25,22.831666666649998,0.232,189.5
FeI2,5.15,Fe1 I2,44.0,82.33333333333333,861.5666666666666,14.0,136.66666666666666,2.3833333333333333,2.0,3.3333333333333335,8.666666666666666,14.0,0.6666666666666666,2.0,32.25333333333334,0.7080000000000001,119.0
FeP4,0.32,Fe1 P4,17.2,77.4,616.04,13.6,112.0,2.118,2.0,2.4,1.2,5.6,2.4,3.2,20.202190476160002,1.3,47.4
FePS,0.25,Fe1 P1 S1,19.0,75.33333333333333,838.8866666666668,13.0,114.66666666666667,2.1999999999999997,2.0,2.3333333333333335,2.0,6.333333333333333,1.6666666666666667,3.0,19.695704365066664,1.2756666666666667,100.33333333333333
Ga1As0.1P0.9,1.22,Ga1 As0.1 P0.9,23.9,78.55000000000001,348.74,14.0,115.1,1.9995,2.0,2.0,5.5,9.5,4.0,4.0,20.694107142840004,0.7312500000000001,41.199999999999996
Ga0.001Te1Pb0.999,0.3,Ga0.001 Te1 Pb0.999,66.9745,85.4965,661.48615,14.999500000000001,141.988,2.21474,2.0,2.9995000000000003,10.0,21.9925,3.0004999999999997,3.0004999999999997,31.432040416649997,0.232,188.4195
Ga0.005Te1Pb0.995,0.37,Ga0.005 Te1 Pb0.995,66.8725,85.4825,660.89075,14.9975,141.94,2.2137000000000002,2.0,2.9975,10.0,21.9625,3.0025,3.0025,31.41353541665,0.232,188.0975
Ga0.01Te1Pb0.99,0.42,Ga0.01 Te1 Pb0.99,66.745,85.465,660.1465,14.995,141.88,2.2124,2.0,2.995,10.0,21.924999999999997,3.005,3.005,31.39040416665,0.232,187.695
Ga0.04Te1Pb0.96,0.37,Ga0.04 Te1 Pb0.96,65.98,85.35999999999999,655.681,14.98,141.51999999999998,2.2046,2.0,2.98,10.0,21.7,3.02,3.02,31.251616666649998,0.232,185.28
Ga0.07Te1Pb0.93,0.34,Ga0.07 Te1 Pb0.93,65.215,85.255,651.2155,14.965,141.16,2.1968,2.0,2.9650000000000003,10.0,21.475,3.035,3.035,31.112829166650002,0.232,182.865
Ga0.95Hg0.05Sb0.95Te0.05,0.69,Ga0.95 Hg0.05 Sb0.95 Te0.05,42.25,79.55,597.10225,14.0,130.72499999999997,1.936,2.0,2.0,10.0,14.35,3.8499999999999996,3.8499999999999996,25.448335488505,0.011600000000000001,117.19999999999999
Ga0.99Hg0.01Sb0.99Te0.01,0.72,Ga0.99 Hg0.01 Sb0.99 Te0.01,41.25,79.51,602.09645,13.999999999999998,130.545,1.9311999999999998,2.0,2.0,10.0,14.069999999999999,3.9699999999999998,3.9699999999999998,25.256667097701,0.00232,115.44000000000001
Ga0.9Hg0.1Sb0.9Te0.1,0.65,Ga0.9 Hg0.1 Sb0.9 Te0.1,43.50000000000001,79.6,590.8595,14.000000000000002,130.95000000000002,1.942,2.0,2.0,10.0,14.700000000000001,3.7,3.7,25.68792097701,0.023200000000000002,119.4
Ga1.001Sb0.999Se0.003,0.71,Ga1.001 Sb0.999 Se0.003,40.97953070394408,79.50873689465801,602.8812431352969,14.001997004493257,130.4757863205192,1.93080878681977,2.0,2.00199700449326,10.0,14.001997004493257,3.9980029955067393,3.9980029955067393,25.203473539690464,0.001196704942586121,114.7978032950574
Ga1.001Sb0.999Te0.003,0.72,Ga1.001 Sb0.999 Te0.003,41.00649026460309,79.51023464802796,603.2237194208685,14.001997004493257,130.50274588117819,1.9301347978032948,2.0,2.00199700449326,10.0,14.001997004493257,3.9980029955067393,3.9980029955067393,25.21671867199196,0.0006949575636545182,115.00449326010983
Ga1.002Sb0.998Se0.006,0.7,Ga1.002 Sb0.998 Se0.006,40.95912263210369,79.51744765702892,602.4188733798605,14.003988035892325,130.4516450648056,1.9316151545363909,2.0,2.003988035892323,10.0,14.003988035892325,3.9960119641076774,3.9960119641076774,25.198212861415755,0.0023898305084745766,114.5962113659023
Ga1.002Sb0.998Te0.006,0.7,Ga1.002 Sb0.998 Te0.006,41.012961116650054,79.52043868394817,603.1028015952144,14.003988035892325,130.50548354935194,1.930269192422732,2.0,2.003988035892323,10.0,14.003988035892325,3.9960119641076774,3.9960119641076774,25.224663509471487,0.001387836490528415,115.00897308075774
Ga1.005Sb0.995Se0.015,0.64,Ga1.005 Sb0.995 Se0.015,40.89826302729528,79.54342431761786,601.0400248138957,14.009925558312652,130.37965260545903,1.934019851116625,2.0,2.0099255583126547,9.999999999999998,14.009925558312652,3.9900744416873444,3.9900744416873444,25.18252481389578,0.005947890818858561,113.99503722084366
Ga1.005Sb0.995Te0.015,0.68,Ga1.005 Sb0.995 Te0.015,41.03225806451612,79.55086848635234,602.7422084367245,14.009925558312652,130.51364764267987,1.9306699751861038,2.0,2.0099255583126547,9.999999999999998,14.009925558312652,3.9900744416873444,3.9900744416873444,25.248356079404214,0.00345409429280397,115.02233250620345
Ga1.01Cu0.99Se2.01,1.59,Ga1.01 Cu0.99 Se2.01,32.00997506234414,79.04987531172071,659.1200498753117,14.00997506234414,123.46633416458855,2.2031421446384036,1.7531172069825436,2.256857855361596,10.0,14.00997506234414,2.261845386533666,2.508728179551122,20.474956359102244,0.4004962593516209,78.6857855361596
Ga1.01Sb0.99Se0.03,0.62,Ga1.01 Sb0.99 Se0.03,40.79802955665025,79.58620689655172,598.7691133004926,14.01970443349754,130.2610837438424,1.9379802955665024,2.0,2.019704433497537,10.000000000000002,14.01970443349754,3.9802955665024635,3.9802955665024635,25.15668719211823,0.011807881773399016,113.00492610837439
Ga1.01Sb0.99Te0.03,0.68,Ga1.01 Sb0.99 Te0.03,41.064039408866996,79.60098522167488,602.1483251231527,14.01970443349754,130.5270935960591,1.9313300492610839,2.0,2.019704433497537,10.000000000000002,14.01970443349754,3.9802955665024635,3.9802955665024635,25.28737684729015,0.006857142857142858,115.04433497536948
Ga1.02Sb0.98Se0.06,0.63,Ga1.02 Sb0.98 Se0.06,40.601941747572816,79.66990291262135,594.3265048543689,14.03883495145631,130.0291262135922,1.9457281553398056,2.0,2.0388349514563107,10.0,14.03883495145631,3.9611650485436884,3.9611650485436884,25.10614077669903,0.023271844660194177,111.06796116504854
Ga1.02Sb0.98Te0.06,0.68,Ga1.02 Sb0.98 Te0.06,41.12621359223301,79.69902912621359,600.9865048543688,14.03883495145631,130.55339805825238,1.9326213592233008,2.0,2.0388349514563107,10.0,14.03883495145631,3.9611650485436884,3.9611650485436884,25.36371359223204,0.013514563106796116,115.0873786407767
Ga1.05Sb0.95Se0.15,0.66,Ga1.05 Sb0.95 Se0.15,40.04651162790697,79.90697674418604,581.7425581395348,14.093023255813952,129.37209302325581,1.9676744186046513,2.0,2.093023255813953,10.0,14.093023255813952,3.906976744186047,3.906976744186047,24.962965116279072,0.05574418604651163,105.5813953488372
Ga1.05Sb0.95Te0.15,0.68,Ga1.05 Sb0.95 Te0.15,41.30232558139535,79.9767441860465,597.6955813953488,14.093023255813952,130.62790697674419,1.9362790697674421,2.0,2.093023255813953,10.0,14.093023255813952,3.906976744186047,3.906976744186047,25.579941860462792,0.03237209302325581,115.20930232558139
Ga1.1Cu0.9Se2.1,1.59,Ga1.1 Cu0.9 Se2.1,32.09756097560977,79.48780487804878,632.34,14.097560975609758,123.17073170731709,2.2087804878048787,1.780487804878049,2.3170731707317076,10.0,14.097560975609758,2.3658536585365852,2.585365853658537,20.765426829268296,0.4092439024390245,73.73170731707316
Ga1.1Sb0.9Se0.3,0.67,Ga1.1 Sb0.9 Se0.3,39.21739130434783,80.26086956521739,562.9578260869566,14.173913043478263,128.3913043478261,2.000434782608696,2.0,2.173913043478261,10.0,14.173913043478263,3.826086956521739,3.826086956521739,24.749239130434784,0.10421739130434783,97.3913043478261
Ga1.1Sb0.9Te0.3,0.7,Ga1.1 Sb0.9 Te0.3,41.56521739130435,80.3913043478261,592.783043478261,14.173913043478263,130.73913043478262,1.9417391304347829,2.0,2.173913043478261,10.0,14.173913043478263,3.826086956521739,3.826086956521739,25.9027173913,0.060521739130434786,115.39130434782611
Ga1.2Cu0.8Se2.2,1.58,Ga1.2 Cu0.8 Se2.2,32.19047619047619,79.95238095238095,603.9304761904763,14.19047619047619,122.85714285714285,2.2147619047619047,1.8095238095238095,2.380952380952381,10.0,14.19047619047619,2.4761904761904763,2.6666666666666665,21.07357142857143,0.4185238095238096,68.47619047619048
Ga1.5Cu0.5S2.5,2.43,Ga1.5 Cu0.5 S2.5,22.444444444444443,80.66666666666667,467.5888888888889,14.444444444444445,113.66666666666667,2.247777777777778,1.8888888888888888,2.5555555555555554,4.444444444444445,8.88888888888889,2.7777777777777777,2.888888888888889,21.841875,1.2233333333333334,85.22222222222223
Ga1.5Cu0.5Se2.5,1.76,Ga1.5 Cu0.5 Se2.5,32.44444444444444,81.22222222222223,526.2777777777778,14.444444444444445,122.0,2.231111111111111,1.8888888888888888,2.5555555555555554,10.0,14.444444444444445,2.7777777777777777,2.888888888888889,21.91583333333334,0.4438888888888889,54.111111111111114
Ga1.65Cu0.35S2.65,2.53,Ga1.65 Cu0.35 S2.65,22.3010752688172,81.2258064516129,431.00537634408596,14.559139784946233,113.06451612903226,2.255591397849462,1.9247311827956985,2.6344086021505375,4.301075268817204,8.86021505376344,2.913978494623656,2.9892473118279566,22.22034274193548,1.2549032258064514,79.53763440860214
Ga1.65Cu0.35Se2.65,1.81,Ga1.65 Cu0.35 Se2.65,32.55913978494623,81.79569892473118,491.20881720430106,14.559139784946233,121.61290322580645,2.238494623655914,1.9247311827956985,2.6344086021505375,10.0,14.559139784946233,2.913978494623656,2.9892473118279566,22.296209677419355,0.45534408602150533,47.62365591397849
Ga1.6Cu0.4S2.6,2.45,Ga1.6 Cu0.4 S2.6,22.347826086956527,81.04347826086958,442.93478260869574,14.521739130434787,113.2608695652174,2.25304347826087,1.9130434782608698,2.608695652173913,4.347826086956522,8.869565217391306,2.869565217391304,2.9565217391304355,22.096929347826087,1.244608695652174,81.3913043478261
Ga1.7Cu0.3S2.7,2.55,Ga1.7 Cu0.3 S2.7,22.255319148936167,81.40425531914894,419.32978723404256,14.595744680851062,112.87234042553192,2.2580851063829788,1.9361702127659572,2.6595744680851063,4.25531914893617,8.851063829787234,2.9574468085106385,3.021276595744681,22.341130319148935,1.2649787234042553,77.72340425531915
Ga1.85Cu0.15Se2.85,1.92,Ga1.85 Cu0.15 Se2.85,32.701030927835056,82.50515463917526,447.82453608247425,14.701030927835053,121.1340206185567,2.2476288659793817,1.969072164948454,2.731958762886598,10.0,14.701030927835053,3.082474226804124,3.1134020618556706,22.76677835051547,0.46951546391752585,39.5979381443299
Ga1.8Cu0.2S2.8,2.65,Ga1.8 Cu0.2 S2.8,22.166666666666668,81.75,396.70833333333337,14.666666666666668,112.5,2.2629166666666665,1.9583333333333335,2.7083333333333335,4.166666666666667,8.833333333333334,3.0416666666666665,3.083333333333333,22.57515625,1.2845,74.20833333333333