composition,gap expt,composition_pmg,MagpieData mean Number,MagpieData mean MendeleevNumber,MagpieData mean MeltingT,MagpieData mean Column,MagpieData mean CovalentRadius,MagpieData mean Electronegativity,MagpieData mean NsValence,MagpieData mean NpValence,MagpieData mean NdValence,MagpieData mean NValence,MagpieData mean NpUnfilled,MagpieData mean NUnfilled,MagpieData mean GSvolume_pa,MagpieData mean GSbandgap,MagpieData mean SpaceGroupNumber
Na2Ti3O7,3.51,Na2 Ti3 O7,12.0,61.833333333333336,579.0283333333333,10.5,106.16666666666667,2.5466666666666664,1.8333333333333333,2.3333333333333335,0.5,4.666666666666667,1.1666666666666667,3.3333333333333335,14.357638888883335,0.0,93.66666666666667
Na2Zn(GeSe3)2,2.36,Na2 Zn1 Ge2 Se6,29.09090909090909,69.54545454545455,620.1109090909091,12.545454545454545,128.54545454545453,2.075454545454545,1.8181818181818181,2.5454545454545454,8.181818181818182,12.545454545454545,1.8181818181818181,2.0,24.90696969696364,0.5054545454545455,107.81818181818181
Na2Zn(SnS3)2,2.93,Na2 Zn1 Sn2 S6,22.545454545454547,69.18181818181819,434.0672727272727,12.545454545454545,123.81818181818181,2.0827272727272725,1.8181818181818181,2.5454545454545454,2.727272727272727,7.090909090909091,1.8181818181818181,2.0,26.703446969690905,1.201090909090909,123.0909090909091
Na2Zn3(SeO3)4,4.9,Na2 Zn3 Se4 O12,16.38095238095238,76.71428571428571,259.68476190476184,14.0,93.80952380952381,2.775714285714286,1.9047619047619047,3.0476190476190474,3.3333333333333335,8.285714285714286,1.5238095238095237,1.619047619047619,14.919365079361905,0.1521904761904762,59.04761904761905
Na3MoClO4,4.69,Na3 Mo1 Cl1 O4,13.777777777777779,55.333333333333336,488.8233333333333,10.0,113.11111111111111,2.4299999999999997,1.5555555555555556,2.3333333333333335,0.5555555555555556,4.444444444444445,1.0,2.0,18.25972222221111,0.27699999999999997,114.22222222222223
Na3MoO4F,4.77,Na3 Mo1 O4 F1,12.88888888888889,55.22222222222222,475.7011111111112,10.0,108.11111111111111,2.5211111111111113,1.5555555555555556,2.3333333333333335,0.5555555555555556,4.444444444444445,1.0,2.0,16.61638888887778,0.21888888888888888,108.77777777777777
Na3Sn2ClF6,3.88,Na3 Sn2 Cl1 F6,17.0,68.16666666666667,217.9475,12.5,101.66666666666667,2.8125,1.75,3.25,1.6666666666666667,6.666666666666667,1.25,1.5,19.753541666658332,1.19275,93.58333333333333
Na3WClO4,4.99,Na3 W1 Cl1 O4,17.333333333333332,55.44444444444444,577.6011111111112,10.0,114.0,2.4522222222222223,1.6666666666666667,2.3333333333333335,0.4444444444444444,6.0,1.0,2.0,18.299722222211113,0.27699999999999997,114.22222222222223
Na3Zn(BO2)5,3.2,Na3 Zn1 B5 O10,8.842105263157896,68.6842105263158,741.7521052631579,12.631578947368421,89.47368421052632,2.5810526315789475,1.8421052631578947,2.3684210526315788,0.5263157894736842,4.7368421052631575,2.3684210526315788,2.526315789473684,12.031710526310528,0.4010526315789474,96.36842105263158
Na4Al4Si19,0.64,Na4 Al4 Si19,13.407407407407407,66.0,1380.3837037037038,11.925925925925926,120.62962962962963,1.7133333333333336,1.8518518518518519,1.5555555555555556,0.0,3.4074074074074074,3.5555555555555554,3.7037037037037037,21.157530864192594,0.543962962962963,227.0
Na4Eu(GeS3)2,2.15,Na4 Eu1 Ge2 S6,20.53846153846154,55.30769230769231,563.9569230769231,10.076923076923077,133.23076923076923,1.8773076923076923,1.6923076923076923,2.1538461538461537,1.5384615384615385,5.923076923076923,1.5384615384615385,2.3846153846153846,27.24342948716923,1.0752307692307692,155.0
Na4Mg(GeSe3)2,2.53,Na4 Mg1 Ge2 Se6,24.923076923076923,59.07692307692308,599.483076923077,10.0,135.76923076923077,1.873076923076923,1.6923076923076923,2.1538461538461537,6.153846153846154,10.0,1.5384615384615385,1.8461538461538463,26.261025641015383,0.4276923076923077,126.46153846153847
Na4Mg(SiSe3)2,2.85,Na4 Mg1 Si2 Se6,22.153846153846153,58.92307692307692,672.6523076923077,10.0,134.3846153846154,1.856153846153846,1.6923076923076923,2.1538461538461537,4.615384615384615,8.461538461538462,1.5384615384615385,1.8461538461538463,25.8664102564,0.48769230769230776,126.76923076923077
Na5Gd(MoO4)4,3.38,Na5 Gd1 Mo4 O16,15.961538461538462,62.65384615384615,611.5826923076922,11.076923076923077,103.76923076923077,2.6742307692307694,1.6538461538461537,2.4615384615384617,0.8076923076923077,5.1923076923076925,1.2307692307692308,2.9615384615384617,14.873333333326922,0.0,94.11538461538461
Na7(CoO3)2,0.5,Na7 Co2 O6,11.933333333333334,43.46666666666667,430.726,8.066666666666666,120.66666666666667,2.0606666666666666,1.5333333333333334,1.6,0.9333333333333333,4.066666666666666,0.8,1.6666666666666667,18.654888888873337,0.0,137.53333333333333
Na7.36Ga7.24Sn4.78Se24,1.5,Na7.36 Ga7.24 Sn4.78 Se24,31.36007376671277,70.74412171507608,442.43785154449046,12.733978792070078,130.2319041032734,2.086629783310281,1.830336560627017,2.6002766251728904,8.303365606270171,12.733978792070078,2.3817427385892116,2.5514061779621944,26.116678961113138,0.44204702627939146,72.81650530198247
NaAlGeS4,3.6,Na1 Al1 Ge1 S4,17.142857142857142,72.28571428571429,581.3114285714286,13.142857142857142,118.14285714285714,2.1242857142857146,1.8571428571428572,2.7142857142857144,1.4285714285714286,6.0,2.4285714285714284,2.5714285714285716,24.553690476185714,1.313,137.0
NaB15,0.32,Na1 B15,5.375,67.625,2224.429375,12.25,89.125,1.970625,1.9375,0.9375,0.0,2.875,4.6875,4.75,8.55192708333125,1.42875,169.9375
NaBiS2,0.38,Na1 Bi1 S2,31.5,66.0,422.9975,12.0,131.0,2.0275,1.75,2.75,2.5,10.5,1.75,2.0,28.441770833325002,1.101,95.25
NaBiSe2,0.28,Na1 Bi1 Se2,40.5,66.5,475.8175,12.0,138.5,2.0125,1.75,2.75,7.5,15.5,1.75,2.0,28.508333333325,0.3995,67.25
NaCd4P3,1.1,Na1 Cd4 P3,31.0,66.375,462.45625,11.75,132.875,1.7825,1.875,1.125,5.0,8.0,1.125,1.25,21.866755952362503,0.609375,126.375
NaCdAsS3,2.93,Na1 Cd1 As1 S3,23.333333333333332,70.0,536.695,12.666666666666666,124.0,2.0900000000000003,1.8333333333333333,2.5,3.3333333333333335,7.666666666666667,1.5,1.6666666666666667,24.712326388883337,1.101,133.16666666666666
NaCeS3,2.15,Na1 Ce1 S3,23.4,56.2,521.39,10.4,137.0,1.9580000000000002,1.8,2.4,0.2,4.6,1.2,5.8,28.76879166666,1.3212,126.6
NaF,10.5,Na1 F1,10.0,47.5,212.185,9.0,111.5,2.455,1.5,2.5,0.0,4.0,0.5,1.0,19.47541666665,0.985,122.0
NaGaGe3Se8,2.35,Na1 Ga1 Ge3 Se8,31.53846153846154,78.84615384615384,635.3830769230769,14.153846153846153,123.6923076923077,2.2438461538461536,1.9230769230769231,3.0,9.23076923076923,14.153846153846153,2.5384615384615383,2.6153846153846154,24.95967948717692,0.5800769230769232,83.07692307692308
NaH3(SeO3)2,4.9,Na1 H3 Se2 O6,10.833333333333334,81.5,144.14166666666668,11.0,74.58333333333333,2.7724999999999995,1.6666666666666667,2.6666666666666665,1.6666666666666667,6.0,1.3333333333333333,1.6666666666666667,12.963194444441667,2.0964166666666664,75.91666666666667
NaIn(IO3)4,4.25,Na1 In1 I4 O12,20.444444444444443,83.61111111111111,166.9788888888889,15.222222222222221,92.0,3.035,1.9444444444444444,3.8333333333333335,2.7777777777777777,8.555555555555555,1.8333333333333333,1.8888888888888888,18.601296296294446,0.23600000000000002,42.666666666666664
NaIn(TeO3)2,4.0,Na1 In1 Te2 O6,21.2,77.9,257.474,14.2,98.0,2.755,1.9,3.3,3.0,8.2,2.1,2.2,17.76599999999,0.09280000000000001,74.4
NaIn3S5,2.18,Na1 In3 S5,26.444444444444443,74.11111111111111,400.21333333333337,13.333333333333334,124.11111111111111,2.1300000000000003,1.8888888888888888,2.5555555555555554,3.3333333333333335,7.777777777777778,2.7777777777777777,2.888888888888889,25.661967592588887,1.2233333333333334,110.66666666666667
NaIn3Se5,2.17,Na1 In3 Se5,36.44444444444444,74.66666666666667,458.90222222222224,13.333333333333334,132.44444444444446,2.1133333333333333,1.8888888888888888,2.5555555555555554,8.88888888888889,13.333333333333334,2.7777777777777777,2.888888888888889,25.735925925922224,0.4438888888888889,79.55555555555556
NaInS2,1.9,Na1 In1 S2,23.0,63.25,394.33500000000004,11.5,129.5,1.9675,1.75,2.25,2.5,6.5,2.25,2.5,26.269270833325002,1.101,127.0
NaInSe2,2.8,Na1 In1 Se2,32.0,63.75,447.155,11.5,137.0,1.9525,1.75,2.25,7.5,11.5,2.25,2.5,26.335833333325002,0.3995,99.0
NaInSnS4,2.4,Na1 In1 Sn1 S4,24.857142857142858,72.71428571428571,408.4485714285715,13.142857142857142,123.85714285714286,2.1414285714285715,1.8571428571428572,2.7142857142857144,2.857142857142857,7.428571428571429,2.4285714285714284,2.5714285714285716,27.133690476185713,1.2582857142857142,112.71428571428571
NaInTe2,1.6,Na1 In1 Te2,41.0,64.25,561.485,11.5,146.0,1.7275,1.75,2.25,7.5,11.5,2.25,2.5,30.757499999975,0.232,168.0
NaLa2TaO6,4.5,Na1 La2 Ta1 O6,24.6,59.8,637.567,10.8,114.6,2.527,1.9,2.4,0.5,6.2,1.2,3.8,17.578833333330003,0.0,91.8
NaLaS3,2.61,Na1 La1 S3,23.2,55.8,545.79,10.4,137.6,1.954,1.8,2.4,0.2,4.4,1.2,3.2,28.70029166666,1.3212,126.6
NaNb2PS10,1.72,Na1 Nb2 P1 S10,19.142857142857142,75.64285714285714,719.4121428571428,13.285714285714286,117.92857142857143,2.2942857142857145,1.7857142857142858,3.0714285714285716,0.5714285714285714,5.428571428571429,1.6428571428571428,2.7142857142857144,24.717308673464284,1.6889285714285713,99.21428571428571
NaSb,0.82,Na1 Sb1,31.0,43.5,637.325,8.0,152.5,1.49,1.5,1.5,5.0,8.0,1.5,2.0,30.40166666665,0.0,197.5
NaSb(PS3)2,2.17,Na1 Sb1 P2 S6,18.8,78.1,423.941,14.2,114.9,2.284,1.9,3.3,1.0,6.2,2.1,2.2,26.06650595237,1.6461999999999999,81.9
NaSbF6,3.76,Na1 Sb1 F6,14.5,80.625,199.45625,14.75,80.875,3.3575,1.875,4.125,1.25,7.25,1.125,1.25,14.881041666662501,1.4775,60.625
NaSbTe2,0.47,Na1 Sb1 Te2,41.5,66.75,679.9925000000001,12.0,145.25,1.795,1.75,2.75,7.5,12.0,1.75,2.0,32.582499999975,0.232,174.75
NaSc(SeO3)2,5.5,Na1 Sc1 Se2 O6,14.8,71.3,350.16700000000003,13.2,97.2,2.803,1.9,3.2,2.1,7.2,1.6,2.6,15.79483333333,0.1598,52.3
NaSm(PS3)2,2.54,Na1 Sm1 P2 S6,19.9,71.9,468.06299999999993,13.0,120.8,2.196,1.9,3.0,0.0,5.5,1.8,2.7,26.233505952370002,1.6461999999999999,81.9
NaY(Te2O5)2,3.9,Na1 Y1 Te4 O10,21.125,77.75,350.531875,14.25,98.0,2.809375,1.9375,3.5,2.5625,8.0,1.75,2.375,18.231979166656252,0.116,71.9375
NaYb(PS3)2,1.85,Na1 Yb1 P2 S6,20.7,73.5,442.7629999999999,13.0,119.7,2.205,1.9,3.0,0.0,6.3,1.8,1.9,26.32250595237,1.6461999999999999,87.8
Nb2AgPS10,1.78,Nb2 Ag1 P1 S10,21.714285714285715,80.14285714285714,781.1307142857144,14.0,116.42857142857143,2.365714285714286,1.7857142857142858,3.0714285714285716,1.2857142857142858,6.142857142857143,1.6428571428571428,2.7142857142857144,23.794927721085713,1.6889285714285713,98.92857142857143
Nb2O5,3.08,Nb2 O5,17.428571428571427,75.57142857142857,824.8571428571429,12.857142857142858,94.0,2.914285714285714,1.7142857142857142,2.857142857142857,1.1428571428571428,5.714285714285714,1.4285714285714286,3.4285714285714284,11.697857142857144,0.0,74.0
Nb2Pb2Se4O15,2.79,Nb2 Pb2 Se4 O15,21.82608695652174,83.34782608695652,413.00956521739135,14.869565217391305,90.8695652173913,3.028695652173913,1.9130434782608696,3.4782608695652173,2.9565217391304346,9.565217391304348,2.0,2.608695652173913,14.471086956521741,0.13895652173913045,49.73913043478261
Nb2Tl3CuSe12,0.8,Nb2 Tl3 Cu1 Se12,42.333333333333336,80.77777777777777,806.4872222222223,14.0,129.72222222222223,2.2533333333333334,1.8333333333333333,2.8333333333333335,9.333333333333334,16.333333333333332,2.1666666666666665,3.0,24.400000000000002,0.5326666666666667,79.61111111111111
Nb2Tl4S11,1.8,Nb2 Tl4 S11,34.23529411764706,80.3529411764706,710.5858823529411,14.0,121.3529411764706,2.2388235294117647,1.8823529411764706,2.823529411764706,2.823529411764706,10.823529411764707,2.4705882352941178,3.2941176470588234,25.156213235294118,1.4248235294117648,117.88235294117646
Nb3CuO8,1.47,Nb3 Cu1 O8,18.0,75.08333333333333,837.1808333333333,12.833333333333334,96.0,2.8516666666666666,1.6666666666666667,2.6666666666666665,1.8333333333333333,6.166666666666667,1.3333333333333333,3.1666666666666665,11.5375,0.0,84.0
Nb6VSb3O25,3.2,Nb6 V1 Sb3 O25,17.771428571428572,78.8,650.4097142857142,13.714285714285714,91.54285714285714,2.9537142857142857,1.8285714285714285,3.1142857142857143,1.6285714285714286,6.571428571428571,1.6857142857142857,3.085714285714286,12.697,0.0,68.6
NbAg2(PS4)2,2.02,Nb1 Ag2 P2 S8,22.53846153846154,80.53846153846153,689.3338461538461,14.23076923076923,116.0,2.3446153846153845,1.7692307692307692,2.923076923076923,1.8461538461538463,6.538461538461538,1.6923076923076923,2.3846153846153846,23.251959706953848,1.605076923076923,95.61538461538461
NbCu3Se4,2.45,Nb1 Cu3 Se4,33.0,74.375,1099.91375,12.75,130.0,2.1875,1.5,2.0,9.25,12.75,1.0,2.25,19.38375,0.3995,120.0
NbCuO3,2.0,Nb1 Cu1 O3,18.8,74.4,854.434,12.8,98.8,2.7640000000000002,1.6,2.4,2.8,6.8,1.2,2.8,11.312999999999999,0.0,98.0
NbSe2,1.4,Nb1 Se2,36.333333333333336,75.0,1246.0,12.333333333333334,134.66666666666666,2.233333333333333,1.6666666666666667,2.6666666666666665,8.0,12.333333333333334,1.3333333333333333,3.6666666666666665,23.340000000000003,0.5326666666666667,85.66666666666667
NbSnIr,0.28,Nb1 Sn1 Ir1,56.0,62.333333333333336,1998.0266666666666,9.333333333333334,148.0,1.92,1.6666666666666667,0.6666666666666666,7.0,14.0,1.3333333333333333,4.666666666666667,21.891666666666666,0.0,198.33333333333334
Nd(InS2)3,1.15,Nd1 In3 S6,30.3,77.2,491.341,13.8,125.7,2.196,2.0,2.7,3.0,8.1,2.7,3.7,26.231125,1.3212,103.1
Nd1.33Lu0.67S3,1.5,Nd1.33 Lu0.67 S3,35.074,63.348,836.644,10.8,141.52400000000003,2.02142,2.0,2.4,0.134,7.474000000000001,1.2,5.066000000000001,28.599495,1.3212,119.6
Nd10Se14O,1.98,Nd10 Se14 O1,43.36,60.92,796.432,10.8,150.24,2.0216,2.0,2.4,5.6,11.6,1.2,5.2,28.8034,0.44744,85.92
Nd2(SnSe3)3,0.5,Nd2 Sn3 Se9,41.142857142857146,77.07142857142857,610.66,13.714285714285714,135.64285714285714,2.222142857142857,2.0,3.0,8.571428571428571,14.142857142857142,2.142857142857143,3.5714285714285716,28.768214285714286,0.5136428571428572,66.92857142857143
Nd2HfS5,0.7,Nd2 Hf1 S5,34.0,65.375,879.475,11.25,137.75,2.06,2.0,2.5,0.25,7.5,1.25,4.75,27.594296874999998,1.37625,116.5
Nd2O3,4.4,Nd2 O3,28.8,59.8,550.48,10.8,120.0,2.52,2.0,2.4,0.0,6.0,1.2,5.2,19.387,0.0,84.8
Nd2S3,2.65,Nd2 S3,33.6,60.4,750.616,10.8,143.4,2.004,2.0,2.4,0.0,6.0,1.2,5.2,29.396125,1.3212,119.6
Nd2Se3,1.7,Nd2 Se3,44.4,61.0,814.0,10.8,152.4,1.986,2.0,2.4,6.0,12.0,1.2,5.2,29.476,0.47940000000000005,86.0
Nd2Te3,1.12,Nd2 Te3,55.2,61.6,951.1959999999999,10.8,163.2,1.716,2.0,2.4,6.0,12.0,1.2,5.2,34.781999999979995,0.27840000000000004,168.8
Nd2ZrS5,1.83,Nd2 Zr1 S5,30.0,65.25,832.225,11.25,137.75,2.06375,2.0,2.5,0.25,5.75,1.25,4.75,27.718671875,1.37625,116.5
Nd3Te4,1.6,Nd3 Te4,55.42857142857143,59.57142857142857,967.5199999999999,10.428571428571429,165.0,1.6885714285714286,2.0,2.2857142857142856,5.714285714285714,11.714285714285714,1.1428571428571428,5.428571428571429,34.78333333331428,0.2651428571428572,170.0
Nd4(GeS4)3,2.62,Nd4 Ge3 S12,27.789473684210527,72.05263157894737,708.9747368421052,12.947368421052632,127.57894736842105,2.1868421052631577,2.0,2.8421052631578947,1.5789473684210527,7.2631578947368425,1.894736842105263,4.0,27.247236842105263,1.4512105263157895,120.57894736842105
Nd4InSbSe9,1.57,Nd4 In1 Sb1 Se9,43.06666666666667,69.13333333333334,730.3686666666666,12.266666666666667,144.33333333333334,2.0893333333333333,2.0,2.6666666666666665,7.333333333333333,13.066666666666666,1.7333333333333334,4.4,28.556,0.47940000000000005,80.46666666666667
NdAs,1.04,Nd1 As1,46.5,51.5,1192.0,9.0,160.0,1.6600000000000001,2.0,1.5,5.0,10.5,1.5,6.5,28.4925,0.0,180.0
NdB6,4.9,Nd1 B6,12.857142857142858,64.42857142857143,2197.4285714285716,11.571428571428571,100.71428571428571,1.9114285714285715,2.0,0.8571428571428571,0.0,3.4285714285714284,4.285714285714286,5.714285714285714,11.120714285714286,1.3062857142857143,170.0
NdCuSO,2.98,Nd1 Cu1 S1 O1,28.25,64.5,773.7325000000001,11.5,126.0,2.265,1.75,2.0,2.5,7.25,1.0,3.75,20.192968750000002,0.5505,125.25
NdCuTeO,2.26,Nd1 Cu1 Te1 O1,37.25,65.0,857.3075,11.5,134.25,2.145,1.75,2.0,5.0,9.75,1.0,3.75,22.437083333325003,0.116,145.75
NdF3,6.15,Nd1 F3,21.75,74.5,363.625,13.5,93.0,3.27,2.0,3.75,0.0,6.75,0.75,3.25,15.983125000000001,1.4775,59.75
NdLuSe3,1.61,Nd1 Lu1 Se3,46.6,65.4,942.4,10.8,149.6,2.0119999999999996,2.0,2.4,6.2,14.2,1.2,5.0,28.287,0.47940000000000005,86.0
NdMoO4F,3.66,Nd1 Mo1 O4 F1,20.428571428571427,72.85714285714286,637.5285714285714,12.857142857142858,96.57142857142857,3.005714285714286,1.8571428571428572,3.0,0.7142857142857143,6.142857142857143,1.2857142857142858,3.5714285714285716,13.803928571428571,0.2814285714285714,69.42857142857143
NdTe2,0.48,Nd1 Te2,54.666666666666664,66.33333333333333,913.1066666666666,11.666666666666666,159.0,1.78,2.0,2.6666666666666665,6.666666666666667,12.666666666666666,1.3333333333333333,4.666666666666667,34.77888888886667,0.30933333333333335,166.0
Ni(CN)2,2.0,Ni1 C2 N2,10.8,75.8,1900.02,13.6,83.6,2.618,2.0,2.0,1.6,5.6,2.8,3.2,10.227500000000001,4.3732,200.2
Ni2Te3O8,3.84,Ni2 Te3 O8,21.23076923076923,83.6923076923077,466.33692307692303,15.076923076923077,91.53846153846153,2.8953846153846152,2.0,3.3846153846153846,3.5384615384615383,8.923076923076923,1.6923076923076923,2.0,15.21307692306923,0.10707692307692308,77.07692307692308
NiO,4.0,Ni1 O1,18.0,74.0,891.4,13.0,95.0,2.675,2.0,2.0,4.0,8.0,1.0,2.0,9.7125,0.0,118.5
NiS2,0.64,Ni1 S2,20.0,79.0,834.9066666666668,14.0,111.33333333333333,2.356666666666667,2.0,2.6666666666666665,2.6666666666666665,7.333333333333333,1.3333333333333333,2.0,20.631249999999998,1.468,121.66666666666667
NiTe,0.23,Ni1 Te1,40.0,75.5,1225.33,13.0,131.0,2.005,2.0,2.0,9.0,13.0,1.0,2.0,22.54166666665,0.232,188.5
OsS2,2.0,Os1 S2,36.0,77.66666666666667,1360.9066666666668,13.333333333333334,118.0,2.4533333333333336,2.0,2.6666666666666665,2.0,11.333333333333334,1.3333333333333333,2.6666666666666665,21.887916666666666,1.468,111.33333333333333
P2Os,1.13,P2 Os1,35.333333333333336,74.33333333333333,1313.5333333333333,12.666666666666666,119.33333333333333,2.1933333333333334,2.0,2.0,2.0,10.666666666666666,2.0,3.3333333333333335,19.743492063466665,1.0833333333333333,66.0
P2Pd,0.65,P2 Pd1,25.333333333333332,76.0,820.8833333333333,13.333333333333334,117.66666666666667,2.1933333333333334,1.3333333333333333,2.0,3.3333333333333335,6.666666666666667,2.0,2.0,19.850158730133334,1.0833333333333333,76.33333333333333
P2Pd3S8,2.12,P2 Pd3 S8,22.76923076923077,81.23076923076923,709.6638461538462,14.461538461538462,113.15384615384616,2.4323076923076923,1.5384615384615385,2.923076923076923,2.3076923076923075,6.769230769230769,1.6923076923076923,1.6923076923076923,22.666575091569232,1.605076923076923,95.3076923076923
P2Rh,1.0,P2 Rh1,25.0,75.0,957.1999999999999,13.0,118.66666666666667,2.22,1.6666666666666667,2.0,2.6666666666666665,6.333333333333333,2.0,3.0,19.593492063466666,1.0833333333333333,76.33333333333333
P2Se3,2.4,P2 Se3,26.4,86.6,423.32,15.6,114.8,2.4059999999999997,2.0,3.6,6.0,11.6,2.4,2.4,24.580095238080002,1.1294,9.2
P2Se5,2.2,P2 Se5,28.571428571428573,87.28571428571429,443.5142857142857,15.714285714285714,116.28571428571429,2.447142857142857,2.0,3.7142857142857144,7.142857142857143,12.857142857142858,2.2857142857142856,2.2857142857142856,24.962925170057144,1.035,10.571428571428571
PH6NO4,6.8,P1 H6 N1 O4,5.0,88.75,56.9675,8.333333333333334,52.333333333333336,2.6824999999999997,1.5,1.8333333333333333,0.0,3.3333333333333335,1.1666666666666667,1.6666666666666667,9.454082341266666,4.598333333333333,117.33333333333333
PHPbO3,3.97,P1 H1 Pb1 O3,20.333333333333332,86.16666666666667,182.72000000000003,13.0,80.33333333333333,2.84,1.8333333333333333,2.8333333333333335,1.6666666666666667,8.666666666666666,2.1666666666666665,2.3333333333333335,14.1017063492,1.5796666666666666,76.16666666666667
POsS,1.4,P1 Os1 S1,35.666666666666664,76.0,1337.22,13.0,118.66666666666667,2.3233333333333337,2.0,2.3333333333333335,2.0,11.0,1.6666666666666667,3.0,20.815704365066665,1.2756666666666667,88.66666666666667
POsSe,1.4,P1 Os1 Se1,41.666666666666664,76.33333333333333,1372.4333333333334,13.0,123.66666666666667,2.3133333333333335,2.0,2.3333333333333335,5.333333333333333,14.333333333333334,1.6666666666666667,3.0,20.860079365066667,0.8079999999999999,70.0