composition,gap expt,composition_pmg,MagpieData mean Number,MagpieData mean MendeleevNumber,MagpieData mean MeltingT,MagpieData mean Column,MagpieData mean CovalentRadius,MagpieData mean Electronegativity,MagpieData mean NsValence,MagpieData mean NpValence,MagpieData mean NdValence,MagpieData mean NValence,MagpieData mean NpUnfilled,MagpieData mean NUnfilled,MagpieData mean GSvolume_pa,MagpieData mean GSbandgap,MagpieData mean SpaceGroupNumber
Ge0.03Pb0.97Se0.97S0.03,0.28,Ge0.03 Pb0.97 Se0.97 S0.03,56.98,84.95499999999998,554.8822499999999,15.0,132.385,2.4356499999999994,2.0,3.0,9.85,21.64,2.9999999999999996,2.9999999999999996,26.936428125,0.42629,120.34
Ge0.05Pb0.95Se0.95S0.05,0.29,Ge0.05 Pb0.95 Se0.95 S0.05,56.29999999999999,84.925,559.9337499999999,14.999999999999998,131.975,2.4327499999999995,2.0,3.0,9.75,21.4,3.0,3.0,26.884046875,0.44415,120.9
Ge0.05Pb0.95Se1,0.28,Ge0.05 Pb0.95 Se1,56.74999999999999,84.95,562.57475,15.0,132.35,2.4319999999999995,2.0,3.0,10.0,21.65,3.0,3.0,26.887375,0.409075,119.5
Ge0.05Te0.95Pb0.95S0.05,0.4,Ge0.05 Te0.95 Pb0.95 S0.05,64.85,85.4,668.54725,14.999999999999998,140.52499999999998,2.2189999999999994,2.0,3.0,9.75,21.4,3.0,3.0,31.0846302083175,0.28502500000000003,186.45
Ge0.05Te1Pb0.95,0.34,Ge0.05 Te1 Pb0.95,65.75,85.45,676.9047499999999,15.0,141.35,2.207,2.0,3.0,10.0,21.65,3.0,3.0,31.309041666649996,0.241575,188.5
Ge0.06Te0.06Pb0.94Se0.94,0.28,Ge0.06 Te0.06 Pb0.94 Se0.94,57.04,84.97,572.4884999999999,15.0,132.76,2.4169,2.0,3.0,9.999999999999998,21.58,3.0,3.0,27.127149999999,0.40093999999999996,123.64
Ge0.15Pb0.85Se0.85S0.15,0.34,Ge0.15 Pb0.85 Se0.85 S0.15,52.900000000000006,84.77499999999998,585.19125,15.0,129.925,2.4182500000000005,2.0,3.0,9.25,20.2,3.0,3.0,26.622140625,0.53345,123.7
Ge0.15Te0.15Pb0.85Se0.85,0.32,Ge0.15 Te0.15 Pb0.85 Se0.85,55.599999999999994,84.92499999999998,610.2637500000001,15.0,132.4,2.38225,2.0,3.0,10.0,20.95,3.0,3.0,27.2953749999975,0.4031,129.85
Ge0.15Te1Pb0.85,0.36,Ge0.15 Te1 Pb0.85,63.25,85.35,707.44425,15.0,140.05,2.191,2.0,3.0,10.0,20.950000000000003,3.0,3.0,31.05379166665,0.260725,188.5
Ge0.1Pb0.9Se0.9S0.1,0.32,Ge0.1 Pb0.9 Se0.9 S0.1,54.599999999999994,84.85000000000002,572.5625,15.0,130.95,2.4255,2.0,3.0,9.5,20.8,3.0,3.0,26.75309375,0.4888,122.3
Ge0.1Pb0.9Se1,0.3,Ge0.1 Pb0.9 Se1,55.5,84.9,577.8444999999999,15.0,131.7,2.424,2.0,3.0,10.0,21.299999999999997,3.0,3.0,26.75975,0.41865,119.5
Ge0.1Te1Pb0.9,0.35,Ge0.1 Te1 Pb0.9,64.5,85.4,692.1745,15.0,140.7,2.199,2.0,3.0,10.0,21.299999999999997,3.0,3.0,31.181416666649998,0.25115,188.5
Ge0.25Te1Pb0.75,0.44,Ge0.25 Te1 Pb0.75,60.75,85.25,737.98375,15.0,138.75,2.175,2.0,3.0,10.0,20.25,3.0,3.0,30.798541666649996,0.279875,188.5
Ge0.2Pb0.8Se1,0.35,Ge0.2 Pb0.8 Se1,53.00000000000001,84.8,608.384,15.0,130.4,2.408,2.0,3.0,10.0,20.6,3.0,3.0,26.5045,0.4378,119.5
Ge0.2Te0.2Pb0.8Se0.8,0.36,Ge0.2 Te0.2 Pb0.8 Se0.8,54.800000000000004,84.9,631.25,15.000000000000002,132.2,2.363,2.0,3.0,10.0,20.6,3.0,3.0,27.388833333330002,0.40430000000000005,133.3
Ge0.2Te1Pb0.8,0.4,Ge0.2 Te1 Pb0.8,62.0,85.3,722.714,15.0,139.4,2.1830000000000003,2.0,3.0,10.0,20.6,3.0,3.0,30.926166666649998,0.2703,188.5
Ge0.39Te1Pb0.61,0.56,Ge0.39 Te1 Pb0.61,57.25,85.11,780.73905,15.0,136.93,2.1526,2.0,3.0,10.0,19.27,3.0,3.0,30.44119166665,0.306685,188.5
Ge0.3Pb0.7Se1,0.4,Ge0.3 Pb0.7 Se1,50.5,84.69999999999999,638.9235,15.0,129.1,2.392,2.0,3.0,10.0,19.9,3.0,3.0,26.24925,0.45695,119.5
Ge0.3Te1Pb0.7,0.48,Ge0.3 Te1 Pb0.7,59.5,85.2,753.2534999999999,15.0,138.1,2.167,2.0,3.0,10.0,19.9,3.0,3.0,30.670916666649997,0.28945,188.5
Ge0.41Te1Pb0.59,0.49,Ge0.41 Te1 Pb0.59,56.75,85.09,786.84695,15.0,136.67,2.1494,2.0,3.0,10.0,19.13,3.0,3.0,30.390141666649995,0.310515,188.5
Ge0.4Te1Pb0.6,0.51,Ge0.4 Te1 Pb0.6,57.0,85.1,783.793,15.0,136.8,2.151,2.0,3.0,10.0,19.200000000000003,3.0,3.0,30.415666666649997,0.3086,188.5
Ge2Sb2Te5,0.5,Ge2 Sb2 Te5,47.333333333333336,86.44444444444444,871.5177777777777,15.333333333333334,134.22222222222223,2.0688888888888886,2.0,3.3333333333333335,10.0,15.333333333333334,2.6666666666666665,2.6666666666666665,31.4385185185,0.3428888888888889,171.33333333333334
Ge3Bi3O10.5,3.3,Ge3 Bi3 O10.5,26.0,85.36363636363636,354.10909090909087,15.454545454545455,90.72727272727273,2.9218181818181814,2.0,3.4545454545454546,3.6363636363636362,11.636363636363637,2.5454545454545454,2.5454545454545454,15.967727272727274,0.06963636363636364,50.72727272727273
Ge40Te5.3I8,0.8,Ge40 Te5.3 I8,37.140712945591,82.6454033771107,1039.0412382739212,14.649155722326453,124.64165103189494,2.1165103189493433,2.0,2.649155722326454,10.0,14.649155722326453,3.350844277673546,3.350844277673546,27.177592245149906,0.492968105065666,193.57598499061916
GeI2,1.5,Ge1 I2,46.0,90.33333333333333,661.7,16.0,132.66666666666666,2.4433333333333334,2.0,4.0,10.0,16.0,2.0,2.0,36.345,0.8356666666666667,117.66666666666667
GeO2,5.54,Ge1 O2,16.0,84.33333333333333,440.3333333333333,15.333333333333334,84.0,2.9633333333333334,2.0,3.3333333333333335,3.3333333333333335,8.666666666666666,2.6666666666666665,2.6666666666666665,13.738333333333335,0.12766666666666668,83.0
GeP,0.95,Ge1 P1,23.5,81.0,764.35,14.5,113.5,2.0999999999999996,2.0,2.5,5.0,9.5,3.5,3.5,22.7876190476,1.004,113.5
GePb2(SeO3)4,4.1,Ge1 Pb2 Se4 O12,22.526315789473685,86.36842105263158,265.5905263157894,15.68421052631579,88.63157894736842,3.0605263157894735,2.0,3.6842105263157894,3.6842105263157894,10.842105263157896,2.3157894736842106,2.3157894736842106,15.377105263157896,0.1883684210526316,46.05263157894737
GePbS3,2.4,Ge1 Pb1 S3,32.4,84.8,595.418,15.2,116.2,2.416,2.0,3.2,4.0,12.0,2.8,2.8,25.695124999999997,1.3978,132.0
GeTe2,0.3,Ge1 Te2,45.333333333333336,86.33333333333333,885.5733333333334,15.333333333333334,132.0,2.07,2.0,3.3333333333333335,10.0,15.333333333333334,2.6666666666666665,2.6666666666666665,30.843888888866662,0.437,176.33333333333334
H7Se2NO6,4.81,H7 Se2 N1 O6,8.125,89.125,92.36999999999999,9.375,57.75,2.76125,1.5625,2.1875,1.25,5.0,1.1875,1.625,10.471484375000001,3.9378749999999996,103.25
HfHg4(AsCl3)2,2.47,Hf1 Hg4 As2 Cl6,43.07692307692308,81.61538461538461,511.75999999999993,14.153846153846153,119.46153846153847,2.5092307692307694,2.0,2.769230769230769,4.769230769230769,14.923076923076923,0.9230769230769231,1.5384615384615385,24.191180371353845,1.1506153846153846,121.07692307692308
HfHg4(PCl3)2,3.26,Hf1 Hg4 P2 Cl6,40.30769230769231,81.46153846153847,392.8830769230769,14.153846153846153,117.61538461538461,2.5107692307692306,2.0,2.769230769230769,3.230769230769231,13.384615384615385,0.9230769230769231,1.5384615384615385,24.251986232153847,1.4006153846153846,95.84615384615384
HfO2,5.55,Hf1 O2,29.333333333333332,73.0,871.8666666666667,12.0,102.33333333333333,2.7266666666666666,2.0,2.6666666666666665,0.6666666666666666,10.0,1.3333333333333333,4.0,13.469999999999999,0.0,72.66666666666667
HfS2,2.9,Hf1 S2,34.666666666666664,73.66666666666667,1094.24,12.0,128.33333333333334,2.1533333333333333,2.0,2.6666666666666665,0.6666666666666666,10.0,1.3333333333333333,4.0,24.59125,1.468,111.33333333333333
HfSe2,2.2,Hf1 Se2,46.666666666666664,74.33333333333333,1164.6666666666667,12.0,138.33333333333334,2.1333333333333333,2.0,2.6666666666666665,7.333333333333333,16.666666666666668,1.3333333333333333,4.0,24.680000000000003,0.5326666666666667,74.0
Hg3Bi2(SCl4)2,3.26,Hg3 Bi2 S2 Cl8,38.266666666666666,87.53333333333333,262.752,15.6,114.53333333333333,2.698666666666667,2.0,3.6,3.3333333333333335,13.6,1.2,1.2,25.944433908046665,1.6232,78.26666666666667
Hg3Bi2(TeCl4)2,2.8,Hg3 Bi2 Te2 Cl8,43.06666666666667,87.8,307.32533333333333,15.6,118.93333333333334,2.6346666666666665,2.0,3.6,4.666666666666667,14.933333333333334,1.2,1.2,27.141295019153333,1.3914666666666666,89.2
Hg3PS3,1.98,Hg3 P1 S3,43.285714285714285,80.0,312.1914285714286,14.142857142857142,116.85714285714286,2.275714285714286,2.0,2.142857142857143,4.285714285714286,14.428571428571429,1.2857142857142858,1.2857142857142858,25.091945959414286,1.175857142857143,101.42857142857143
Hg3PS4,2.03,Hg3 P1 S4,39.875,81.0,321.7125,14.375,115.375,2.3137499999999998,2.0,2.375,3.75,13.375,1.375,1.375,25.1788120894875,1.304125,97.5
Hg5AsS2I3,1.57,Hg5 As1 S2 I3,56.72727272727273,82.0909090909091,381.7154545454545,14.363636363636363,127.81818181818181,2.3018181818181818,2.0,2.3636363636363638,8.181818181818182,18.90909090909091,0.9090909090909091,0.9090909090909091,29.90742554859091,0.69,120.72727272727273
Hg7.5As4Cl6,1.73,Hg7.5 As4 Cl6,47.65714285714286,81.85714285714286,408.4,14.4,118.74285714285715,2.438857142857143,2.0,2.4,6.571428571428571,16.97142857142857,1.0285714285714285,1.0285714285714285,24.2838226601,0.854742857142857,131.02857142857144
Hg8Bi3As4Cl13,2.43,Hg8 Bi3 As4 Cl13,44.357142857142854,85.14285714285714,360.66285714285715,15.071428571428571,117.92857142857143,2.5664285714285713,2.0,3.0714285714285716,5.357142857142857,15.928571428571429,1.2142857142857142,1.2142857142857142,25.282792487685715,1.1574642857142856,102.14285714285714
HgBr,2.6,Hg1 Br1,57.5,83.0,250.06,14.5,126.0,2.48,2.0,2.5,10.0,21.5,0.5,0.5,27.35879310345,0.7285,115.0
HgBr2,3.59,Hg1 Br2,50.0,87.0,255.3066666666667,15.333333333333334,124.0,2.64,2.0,3.3333333333333335,10.0,20.0,0.6666666666666666,0.6666666666666666,28.065862068966666,0.9713333333333334,98.0
HgBrCl,3.4,Hg1 Br1 Cl1,44.0,86.66666666666667,223.90666666666667,15.333333333333334,118.0,2.706666666666667,2.0,3.3333333333333335,6.666666666666667,16.666666666666668,0.6666666666666666,0.6666666666666666,26.405028735633334,1.3166666666666667,98.0
HgCl2,4.45,Hg1 Cl2,38.0,86.33333333333333,192.50666666666666,15.333333333333334,112.0,2.7733333333333334,2.0,3.3333333333333335,3.3333333333333335,13.333333333333334,0.6666666666666666,0.6666666666666666,24.744195402299997,1.662,98.0
HgI,2.37,Hg1 I1,66.5,83.5,310.58500000000004,14.5,135.5,2.33,2.0,2.5,10.0,21.5,0.5,0.5,34.12629310345,0.531,115.0
HgPS3,2.6,Hg1 P1 S3,28.6,83.6,343.34,15.0,110.8,2.386,2.0,3.0,2.0,9.8,1.8,1.8,25.03368986042,1.6461999999999999,75.6
HgS,2.1,Hg1 S1,48.0,79.5,311.34000000000003,14.0,118.5,2.29,2.0,2.0,5.0,16.0,1.0,1.0,25.51223060345,1.101,118.0
HgTe,0.15,Hg1 Te1,66.0,80.5,478.49,14.0,135.0,2.05,2.0,2.0,10.0,21.0,1.0,1.0,30.0004597701,0.232,159.0
HgTeBr,2.06,Hg1 Te1 Br1,55.666666666666664,85.33333333333333,407.5933333333333,15.0,130.0,2.353333333333333,2.0,3.0,10.0,19.666666666666668,1.0,1.0,29.82697318006667,0.6403333333333333,127.33333333333333
HgTeI,1.85,Hg1 Te1 I1,61.666666666666664,85.66666666666667,447.9433333333333,15.0,136.33333333333334,2.2533333333333334,2.0,3.0,10.0,19.666666666666668,1.0,1.0,34.33863984673334,0.5086666666666667,127.33333333333333
Ho(CuSe)3,0.16,Ho1 Cu3 Se3,36.57142857142857,70.28571428571429,1043.1871428571428,12.0,135.42857142857142,2.0828571428571427,1.5714285714285714,1.7142857142857142,8.571428571428571,13.428571428571429,0.8571428571428571,1.7142857142857142,20.24333333332857,0.34242857142857147,130.14285714285714
Ho(CuTe)3,0.26,Ho1 Cu3 Te3,44.285714285714285,70.71428571428571,1141.1842857142856,12.0,143.14285714285714,1.8900000000000001,1.5714285714285714,1.7142857142857142,8.571428571428571,13.428571428571429,0.8571428571428571,1.7142857142857142,24.033333333314285,0.19885714285714287,189.28571428571428
Ho(InS2)3,1.23,Ho1 In3 S6,31.0,78.6,536.641,13.8,124.8,2.205,2.0,2.7,3.0,8.8,2.7,3.0,25.823458333330002,1.3212,103.1
Ho2GeS5,2.5,Ho2 Ge1 S5,30.75,73.125,830.9,12.5,128.625,2.17125,2.0,2.75,1.25,8.75,1.75,2.5,26.675755208325,1.424125,120.375
Ho2HfS5,1.0,Ho2 Hf1 S5,35.75,68.875,992.725,11.25,135.5,2.0825,2.0,2.5,0.25,9.25,1.25,3.0,26.575130208325,1.37625,116.5
Ho2O3,5.42,Ho2 O3,31.6,65.4,731.6800000000001,10.8,116.4,2.556,2.0,2.4,0.0,8.8,1.2,2.4,17.75633333332,0.0,84.8
Ho2S3,0.5,Ho2 S3,36.4,66.0,931.816,10.8,139.8,2.04,2.0,2.4,0.0,8.8,1.2,2.4,27.765458333319998,1.3212,119.6
In(PSe2)2,1.29,In1 P2 Se4,30.714285714285715,85.28571428571429,434.3357142857143,15.285714285714286,119.42857142857143,2.337142857142857,2.0,3.2857142857142856,7.142857142857143,12.428571428571429,2.7142857142857144,2.7142857142857144,24.725782312914287,0.9208571428571428,28.428571428571427
In0.001Te1Pb0.999,0.3,In0.001 Te1 Pb0.999,66.9835,85.497,661.54957,14.999500000000001,141.998,2.214725,2.0,2.9995000000000003,10.0,21.9925,3.0004999999999997,3.0004999999999997,31.434741666649998,0.232,188.457
In0.005Te1Pb0.995,0.43,In0.005 Te1 Pb0.995,66.9175,85.485,661.20785,14.9975,141.99,2.2136250000000004,2.0,2.9975,10.0,21.9625,3.0025,3.0025,31.42704166665,0.232,188.285
In0.01Ga0.99As0.99P0.01,1.43,In0.01 Ga0.99 As0.99 P0.01,32.0,79.00000000000001,693.2257,14.0,120.53999999999999,1.9949000000000001,2.0,1.9999999999999998,9.95,13.950000000000001,4.0,4.0,20.545238690476,0.008125,114.555
In0.01Ga0.99As1,1.4,In0.01 Ga0.99 As1,32.09,79.005,697.0892,14.0,120.6,1.99485,2.0,2.0,10.0,14.0,4.0,4.0,20.5432625,0.0,115.375
In0.01Te1Pb0.99,0.53,In0.01 Te1 Pb0.99,66.835,85.47,660.7807,14.995,141.98,2.21225,2.0,2.995,10.0,21.924999999999997,3.005,3.005,31.41741666665,0.232,188.07
In0.04Te1Pb0.96,0.37,In0.04 Te1 Pb0.96,66.34,85.38,658.2178,14.98,141.92000000000002,2.204,2.0,2.98,10.0,21.7,3.02,3.02,31.359666666649996,0.232,186.78
In0.07Te1Pb0.93,0.32,In0.07 Te1 Pb0.93,65.845,85.28999999999999,655.6549,14.965,141.86,2.1957500000000003,2.0,2.9650000000000003,10.0,21.475,3.035,3.035,31.30191666665,0.232,185.49
In0.1Ga0.9As0.1P0.9,2.25,In0.1 Ga0.9 As0.1 P0.9,24.8,78.60000000000001,355.082,14.0,116.1,1.998,2.0,2.0,5.5,9.5,4.0,4.0,20.964232142840004,0.7312500000000001,44.949999999999996
In0.1Ga0.9As0.9P0.1,1.6,In0.1 Ga0.9 As0.9 P0.1,32.0,79.00000000000001,664.162,14.0,120.9,1.994,2.0,2.0,9.5,13.5,4.0,4.0,20.80613690476,0.08125,110.55
In0.2Ga0.8As0.2P0.8,2.15,In0.2 Ga0.8 As0.2 P0.8,26.6,78.7,400.059,14.0,117.70000000000002,1.996,2.0,2.0,6.0,10.0,4.0,4.0,21.21459523808,0.65,56.9
In0.2Ga0.8As0.8P0.2,1.58,In0.2 Ga0.8 As0.8 P0.2,32.0,79.0,631.869,14.0,121.30000000000001,1.9930000000000003,2.0,2.0,9.0,13.0,4.0,4.0,21.096023809520002,0.1625,106.10000000000001
In0.2Ga0.8As1,1.07,In0.2 Ga0.8 As1,33.8,79.1,709.139,14.0,122.5,1.9920000000000002,2.0,2.0,10.0,14.0,4.0,4.0,21.0565,0.0,122.5
In0.3Ga0.7As0.3P0.7,2.05,In0.3 Ga0.7 As0.3 P0.7,28.4,78.8,445.036,14.0,119.29999999999998,1.994,2.0,1.9999999999999998,6.5,10.5,4.0,4.0,21.464958333320002,0.56875,68.85000000000001
In0.3Ga0.7As0.7P0.3,1.67,In0.3 Ga0.7 As0.7 P0.3,32.0,79.0,599.576,14.0,121.7,1.992,2.0,1.9999999999999998,8.5,12.5,4.0,4.0,21.38591071428,0.24375,101.64999999999999
In0.3Ga0.7As1,1.0,In0.3 Ga0.7 As1,34.7,79.15,715.481,14.0,123.5,1.9905,2.0,2.0,10.0,14.0,4.0,4.0,21.326625,0.0,126.25
In0.3Ga0.7P1,2.2,In0.3 Ga0.7 P1,25.7,78.65,329.131,14.0,117.5,1.9954999999999998,2.0,2.0,5.0,9.0,4.0,4.0,21.5242440476,0.8125,44.25
In0.4Ga0.6As0.4P0.6,1.85,In0.4 Ga0.6 As0.4 P0.6,30.200000000000003,78.9,490.013,14.0,120.9,1.992,2.0,2.0,7.0,11.0,4.0,4.0,21.715321428560003,0.4875,80.8
In0.4Ga0.6As0.6P0.4,1.74,In0.4 Ga0.6 As0.6 P0.4,32.0,79.0,567.283,14.0,122.1,1.9909999999999999,2.0,2.0,8.0,12.0,4.0,4.0,21.67579761904,0.325,97.2
In0.4Ga0.6As1,0.81,In0.4 Ga0.6 As1,35.6,79.2,721.823,14.0,124.5,1.989,2.0,2.0,10.0,14.0,4.0,4.0,21.59675,0.0,130.0
In0.4Ga0.6P1,2.05,In0.4 Ga0.6 P1,26.6,78.7,335.473,14.0,118.5,1.994,2.0,2.0,5.0,9.0,4.0,4.0,21.7943690476,0.8125,48.0
In0.4Ga1.6Cu1S3.5,2.15,In0.4 Ga1.6 Cu1 S3.5,23.72307692307692,80.06153846153846,519.0132307692309,14.307692307692308,115.61538461538461,2.236615384615385,1.8461538461538463,2.4615384615384617,4.615384615384615,8.923076923076923,2.6153846153846154,2.769230769230769,21.723086538461537,1.1856923076923076,96.61538461538461
In0.5Ga0.5As1,0.75,In0.5 Ga0.5 As1,36.5,79.25,728.165,14.0,125.5,1.9875,2.0,2.0,10.0,14.0,4.0,4.0,21.866875,0.0,133.75
In0.5Ga0.5P1,1.9,In0.5 Ga0.5 P1,27.5,78.75,341.81500000000005,14.0,119.5,1.9925,2.0,2.0,5.0,9.0,4.0,4.0,22.0644940476,0.8125,51.75
In0.6Ga0.4As0.6P0.4,1.25,In0.6 Ga0.4 As0.6 P0.4,33.8,79.1,579.9670000000001,14.0,124.1,1.9880000000000002,2.0,2.0,8.0,12.0,4.0,4.0,22.21604761904,0.325,104.7
In0.72Ga0.28As1,0.55,In0.72 Ga0.28 As1,38.480000000000004,79.36,742.1174000000001,14.0,127.7,1.9842000000000002,2.0,2.0,10.0,14.0,4.0,4.0,22.461150000000004,0.0,142.0
In0.7Ga0.3As0.3P0.7,1.58,In0.7 Ga0.3 As0.3 P0.7,31.999999999999996,79.0,470.404,14.0,123.29999999999998,1.988,2.0,1.9999999999999998,6.5,10.5,4.0,4.0,22.54545833332,0.56875,83.85000000000001
In0.8Ga0.2As0.2P0.8,1.4,In0.8 Ga0.2 As0.2 P0.8,32.0,79.0,438.11100000000005,14.0,123.70000000000002,1.987,2.0,2.0,6.0,10.0,4.0,4.0,22.835345238080002,0.65,79.39999999999999
In0.8Ga0.2As0.8P0.2,0.85,In0.8 Ga0.2 As0.8 P0.2,37.400000000000006,79.3,669.921,14.0,127.3,1.9840000000000002,2.0,2.0,9.0,13.0,4.0,4.0,22.71677380952,0.1625,128.6
In0.8Ga0.2As1,0.5,In0.8 Ga0.2 As1,39.2,79.4,747.191,14.0,128.5,1.983,2.0,2.0,10.0,14.0,4.0,4.0,22.67725,0.0,145.0
In0.99Ga0.01As0.01P0.99,1.3,In0.99 Ga0.01 As0.01 P0.99,32.0,79.0,376.7543,14.0,124.46000000000001,1.9851,2.0,2.0,5.05,9.05,4.0,4.0,23.386130357124003,0.804375,70.94499999999998
In0.99Ga0.01As0.99P0.01,0.3,In0.99 Ga0.01 As0.99 P0.01,40.82000000000001,79.49,755.3773,14.0,130.34,1.9802000000000002,2.0,1.9999999999999998,9.95,13.950000000000001,4.0,4.0,23.192463690476004,0.008125,151.30499999999998
In0.9Ga0.1As0.1P0.9,1.32,In0.9 Ga0.1 As0.1 P0.9,32.0,79.0,405.818,14.0,124.1,1.9860000000000002,2.0,2.0,5.5,9.5,4.0,4.0,23.125232142840005,0.7312500000000001,74.95
In0.9Ga0.1As0.9P0.1,0.45,In0.9 Ga0.1 As0.9 P0.1,39.2,79.4,714.898,14.0,128.9,1.982,2.0,2.0,9.5,13.5,4.0,4.0,22.96713690476,0.08125,140.54999999999998
In1.01Cu0.99Se2.01,1.08,In1.01 Cu0.99 Se2.01,36.54364089775561,79.30174563591022,691.0672817955112,14.00997506234414,128.50374064837905,2.1955860349127176,1.7531172069825436,2.256857855361596,10.0,14.00997506234414,2.261845386533666,2.508728179551122,21.83568578553616,0.4004962593516209,97.57605985037407
In1.05Cu0.95Se2.05,1.07,In1.05 Cu0.95 Se2.05,36.71604938271605,79.50617283950618,679.9553086419753,14.049382716049383,128.51851851851853,2.197901234567901,1.765432098765432,2.2839506172839505,10.0,14.049382716049383,2.308641975308642,2.54320987654321,22.0062962962963,0.4044320987654321,95.90123456790124
In1.1Cu0.9Se2.1,1.06,In1.1 Cu0.9 Se2.1,36.926829268292686,79.75609756097562,666.370243902439,14.097560975609758,128.53658536585368,2.200731707317073,1.780487804878049,2.3170731707317076,10.0,14.097560975609758,2.3658536585365852,2.585365853658537,22.214878048780495,0.4092439024390245,93.85365853658536
In1.3Cu0.7Se2.3,1.1,In1.3 Cu0.7 Se2.3,37.72093023255814,80.69767441860465,615.1893023255814,14.279069767441861,128.6046511627907,2.2113953488372093,1.8372093023255813,2.441860465116279,10.0,14.279069767441861,2.5813953488372094,2.7441860465116283,23.000697674418607,0.4273720930232558,86.13953488372094
In1.5Cu0.5Se2.5,1.24,In1.5 Cu0.5 Se2.5,38.44444444444444,81.55555555555556,568.5577777777778,14.444444444444445,128.66666666666666,2.2211111111111115,1.8888888888888888,2.5555555555555554,10.0,14.444444444444445,2.7777777777777777,2.888888888888889,23.71666666666667,0.4438888888888889,79.11111111111111
In1.65Cu0.35Se2.65,1.19,In1.65 Cu0.35 Se2.65,38.946236559139784,82.1505376344086,536.216559139785,14.559139784946233,128.70967741935482,2.227849462365591,1.9247311827956985,2.6344086021505375,10.0,14.559139784946233,2.913978494623656,2.9892473118279566,24.21322580645161,0.45534408602150533,74.23655913978494
In1.6Cu0.4Se2.6,1.32,In1.6 Cu0.4 Se2.6,38.78260869565218,81.95652173913044,546.7626086956523,14.521739130434787,128.69565217391306,2.2256521739130437,1.9130434782608698,2.608695652173913,10.0,14.521739130434787,2.869565217391304,2.9565217391304355,24.05130434782609,0.45160869565217404,75.82608695652173
In1.6Ga0.4Cu1S3.5,1.55,In1.6 Ga0.4 Cu1 S3.5,27.04615384615385,80.24615384615385,542.4298461538461,14.307692307692308,119.3076923076923,2.2310769230769236,1.8461538461538463,2.4615384615384617,4.615384615384615,8.923076923076923,2.6153846153846154,2.769230769230769,22.720471153846155,1.1856923076923076,110.46153846153847